#LAMMPS inputdata file for 2 metal structure

2	atoms
5  atom types

0.0 3.2695 xlo xhi
0.0	3.2695 ylo yhi
0.0	3.2695 zlo zhi
2.00192523691113e-16	2.00192523691113e-16	2.00192523691113e-16	xy xz yz

Atoms

1 2 1.634750000 1.634750000 1.634750000
2 4 0.000000000 0.000000000 0.000000000
