#LAMMPS inputdata file for 2 metal structure

2	atoms
5  atom types

0.0 3.0865 xlo xhi
0.0	3.0865 ylo yhi
0.0	3.0865 zlo zhi
1.88987375553638e-16	1.88987375553638e-16	1.88987375553638e-16	xy xz yz

Atoms

1 2 1.543238137 1.543238137 1.543238137
2 5 0.000000000 0.000000000 0.000000000
