#LAMMPS inputdata file for 2 metal structure

2	atoms
5  atom types

0.0 3.1793 xlo xhi
0.0	3.1793 ylo yhi
0.0	3.1793 zlo zhi
1.94669549035374e-16	1.94669549035374e-16	1.94669549035374e-16	xy xz yz

Atoms

1 2 1.589652137 1.589652137 1.589652137
2 3 0.000000000 0.000000000 0.000000000
