#LAMMPS inputdata file for 2 metal structure

2	atoms
5  atom types

0.0 3.2402 xlo xhi
0.0	3.2402 ylo yhi
0.0	3.2402 zlo zhi
1.98398475382763e-16	1.98398475382763e-16	1.98398475382763e-16	xy xz yz

Atoms

1 1 1.620113784 1.620113784 1.620113784
2 2 0.000000000 0.000000000 0.000000000
