#LAMMPS inputdata file for 2 metal structure

2	atoms
5  atom types

0.0 3.3540 xlo xhi
0.0	3.354 ylo yhi
0.0	3.354 zlo zhi
2.05366485536013e-16	2.05366485536013e-16	2.05366485536013e-16	xy xz yz

Atoms

1 1 1.676995560 1.676995560 1.676995560
2 4 0.000000000 0.000000000 0.000000000
