#LAMMPS inputdata file for 2 metal structure

2	atoms
5  atom types

0.0 3.1887 xlo xhi
0.0	3.1887 ylo yhi
0.0	3.1887 zlo zhi
1.95245114021671e-16	1.95245114021671e-16	1.95245114021671e-16	xy xz yz

Atoms

1 1 1.594325736 1.594325736 1.594325736
2 5 0.000000000 0.000000000 0.000000000
