#LAMMPS inputdata file for 2 metal structure

2	atoms
5  atom types

0.0 3.2514 xlo xhi
0.0	3.2514 ylo yhi
0.0	3.2514 zlo zhi
1.99084254940904e-16	1.99084254940904e-16	1.99084254940904e-16	xy xz yz

Atoms

1 1 1.625691550 1.625691550 1.625691550
2 3 0.000000000 0.000000000 0.000000000
