#LAMMPS inputdata file for 2 metal structure

2	atoms
5  atom types

0.0 3.2120 xlo xhi
0.0	3.212 ylo yhi
0.0	3.212 zlo zhi
1.96671780423874e-16	1.96671780423874e-16	1.96671780423874e-16	xy xz yz

Atoms

1 4 1.605979308 1.605979308 1.605979308
2 5 0.000000000 0.000000000 0.000000000
