#LAMMPS inputdata file for 2 metal structure

2	atoms
5  atom types

0.0 3.2780 xlo xhi
0.0	3.278 ylo yhi
0.0	3.278 zlo zhi
2.00712981391488e-16	2.00712981391488e-16	2.00712981391488e-16	xy xz yz

Atoms

1 3 1.638977307 1.638977307 1.638977307
2 4 0.000000000 0.000000000 0.000000000
