#LAMMPS inputdata file for 2 metal structure

2	atoms
5  atom types

0.0 3.0982 xlo xhi
0.0	3.0982 ylo yhi
0.0	3.0982 zlo zhi
1.89703770270624e-16	1.89703770270624e-16	1.89703770270624e-16	xy xz yz

Atoms

1 3 1.549111688 1.549111688 1.549111688
2 5 0.000000000 0.000000000 0.000000000
