LAMMPS (15 Jun 2020)
OMP_NUM_THREADS environment is not set. Defaulting to 1 thread. (../comm.cpp:95)
  using 1 OpenMP thread(s) per MPI task
# Three terms should be modified by Perl

#lmp_fitting_mix # jumpname
#ref.meam # potential
#output.dat # output filename

echo none
OMP_NUM_THREADS environment is not set. Defaulting to 1 thread. (../comm.cpp:95)
  using 1 OpenMP thread(s) per MPI task
  triclinic box = (0.0 0.0 0.0) to (12.9608 12.9608 12.9608) with tilt (7.93593901531054e-16 7.93593901531054e-16 7.93593901531054e-16)
  1 by 1 by 1 MPI processor grid
  reading atoms ...
  120 atoms
  reading velocities ...
  120 velocities
  read_data CPU = 0.000 secs
Reading potential file ref.lib with DATE: 2012-06-29
  triclinic box = (0.0 0.0 0.0) to (12.9608 12.9608 12.9608) with tilt (7.93593901531054e-16 7.93593901531054e-16 7.93593901531054e-16)
WARNING: No fixes defined, atoms won't move (../verlet.cpp:54)
Neighbor list info ...
  update every 1 steps, delay 10 steps, check yes
  max neighbors/atom: 5000, page size: 100000
  master list distance cutoff = 4.8
  ghost atom cutoff = 4.8
  binsize = 2.4, bins = 6 6 6
  2 neighbor lists, perpetual/occasional/extra = 2 0 0
  (1) pair meam/c, perpetual
      attributes: full, newton on
      pair build: full/bin/atomonly
      stencil: full/bin/3d
      bin: standard
  (2) pair meam/c, perpetual, half/full from (1)
      attributes: half, newton on
      pair build: halffull/newton
      stencil: none
      bin: none
Per MPI rank memory allocation (min/avg/max) = 8.711 | 8.711 | 8.711 Mbytes
TotEng Pxx Pyy Pzz Pxy Pxz Pyz 
  -831.14356   -48468.811   -48468.811   -48468.811 -2.5991238e-06 -2.5990864e-06 -2.5990635e-06 
Loop time of 4.76837e-07 on 1 procs for 0 steps with 120 atoms

209.7% CPU use with 1 MPI tasks x 1 OpenMP threads

MPI task timing breakdown:
Section |  min time  |  avg time  |  max time  |%varavg| %total
---------------------------------------------------------------
Pair    | 0          | 0          | 0          |   0.0 |  0.00
Neigh   | 0          | 0          | 0          |   0.0 |  0.00
Comm    | 0          | 0          | 0          |   0.0 |  0.00
Output  | 0          | 0          | 0          |   0.0 |  0.00
Modify  | 0          | 0          | 0          |   0.0 |  0.00
Other   |            | 4.768e-07  |            |       |100.00

Nlocal:    120 ave 120 max 120 min
Histogram: 1 0 0 0 0 0 0 0 0 0
Nghost:    412 ave 412 max 412 min
Histogram: 1 0 0 0 0 0 0 0 0 0
Neighs:    1456 ave 1456 max 1456 min
Histogram: 1 0 0 0 0 0 0 0 0 0
FullNghs:  2912 ave 2912 max 2912 min
Histogram: 1 0 0 0 0 0 0 0 0 0

Total # of neighbors = 2912
Ave neighs/atom = 24.2667
Neighbor list builds = 0
Dangerous builds = 0
OMP_NUM_THREADS environment is not set. Defaulting to 1 thread. (../comm.cpp:95)
  using 1 OpenMP thread(s) per MPI task
  triclinic box = (0.0 0.0 0.0) to (12.9608 12.9608 12.9608) with tilt (7.93593901531054e-16 7.93593901531054e-16 7.93593901531054e-16)
  1 by 1 by 1 MPI processor grid
  reading atoms ...
  120 atoms
  reading velocities ...
  120 velocities
  read_data CPU = 0.000 secs
Reading potential file ref.lib with DATE: 2012-06-29
  triclinic box = (0.0 0.0 0.0) to (12.9608 12.9608 12.9608) with tilt (7.93593901531054e-16 7.93593901531054e-16 7.93593901531054e-16)
WARNING: No fixes defined, atoms won't move (../verlet.cpp:54)
Neighbor list info ...
  update every 1 steps, delay 10 steps, check yes
  max neighbors/atom: 5000, page size: 100000
  master list distance cutoff = 4.8
  ghost atom cutoff = 4.8
  binsize = 2.4, bins = 6 6 6
  2 neighbor lists, perpetual/occasional/extra = 2 0 0
  (1) pair meam/c, perpetual
      attributes: full, newton on
      pair build: full/bin/atomonly
      stencil: full/bin/3d
      bin: standard
  (2) pair meam/c, perpetual, half/full from (1)
      attributes: half, newton on
      pair build: halffull/newton
      stencil: none
      bin: none
Per MPI rank memory allocation (min/avg/max) = 8.697 | 8.697 | 8.697 Mbytes
TotEng Pxx Pyy Pzz Pxy Pxz Pyz 
  -831.84495   -41058.461   -41058.461   -41058.461 3.0334406e-05 3.0334405e-05 3.0334413e-05 
Loop time of 4.76837e-07 on 1 procs for 0 steps with 120 atoms

209.7% CPU use with 1 MPI tasks x 1 OpenMP threads

MPI task timing breakdown:
Section |  min time  |  avg time  |  max time  |%varavg| %total
---------------------------------------------------------------
Pair    | 0          | 0          | 0          |   0.0 |  0.00
Neigh   | 0          | 0          | 0          |   0.0 |  0.00
Comm    | 0          | 0          | 0          |   0.0 |  0.00
Output  | 0          | 0          | 0          |   0.0 |  0.00
Modify  | 0          | 0          | 0          |   0.0 |  0.00
Other   |            | 4.768e-07  |            |       |100.00

Nlocal:    120 ave 120 max 120 min
Histogram: 1 0 0 0 0 0 0 0 0 0
Nghost:    375 ave 375 max 375 min
Histogram: 1 0 0 0 0 0 0 0 0 0
Neighs:    1456 ave 1456 max 1456 min
Histogram: 1 0 0 0 0 0 0 0 0 0
FullNghs:  2912 ave 2912 max 2912 min
Histogram: 1 0 0 0 0 0 0 0 0 0

Total # of neighbors = 2912
Ave neighs/atom = 24.2667
Neighbor list builds = 0
Dangerous builds = 0
OMP_NUM_THREADS environment is not set. Defaulting to 1 thread. (../comm.cpp:95)
  using 1 OpenMP thread(s) per MPI task
  triclinic box = (0.0 0.0 0.0) to (12.9608 12.9608 12.9608) with tilt (7.93593901531054e-16 7.93593901531054e-16 7.93593901531054e-16)
  1 by 1 by 1 MPI processor grid
  reading atoms ...
  112 atoms
  reading velocities ...
  112 velocities
  read_data CPU = 0.000 secs
Reading potential file ref.lib with DATE: 2012-06-29
  triclinic box = (0.0 0.0 0.0) to (12.9608 12.9608 12.9608) with tilt (7.93593901531054e-16 7.93593901531054e-16 7.93593901531054e-16)
WARNING: No fixes defined, atoms won't move (../verlet.cpp:54)
Neighbor list info ...
  update every 1 steps, delay 10 steps, check yes
  max neighbors/atom: 5000, page size: 100000
  master list distance cutoff = 4.8
  ghost atom cutoff = 4.8
  binsize = 2.4, bins = 6 6 6
  2 neighbor lists, perpetual/occasional/extra = 2 0 0
  (1) pair meam/c, perpetual
      attributes: full, newton on
      pair build: full/bin/atomonly
      stencil: full/bin/3d
      bin: standard
  (2) pair meam/c, perpetual, half/full from (1)
      attributes: half, newton on
      pair build: halffull/newton
      stencil: none
      bin: none
Per MPI rank memory allocation (min/avg/max) = 8.692 | 8.692 | 8.692 Mbytes
TotEng Pxx Pyy Pzz Pxy Pxz Pyz 
    -746.673   -73995.506   -73995.506   -73995.506    902.38556    902.38556    902.38556 
Loop time of 7.15256e-07 on 1 procs for 0 steps with 112 atoms

139.8% CPU use with 1 MPI tasks x 1 OpenMP threads

MPI task timing breakdown:
Section |  min time  |  avg time  |  max time  |%varavg| %total
---------------------------------------------------------------
Pair    | 0          | 0          | 0          |   0.0 |  0.00
Neigh   | 0          | 0          | 0          |   0.0 |  0.00
Comm    | 0          | 0          | 0          |   0.0 |  0.00
Output  | 0          | 0          | 0          |   0.0 |  0.00
Modify  | 0          | 0          | 0          |   0.0 |  0.00
Other   |            | 7.153e-07  |            |       |100.00

Nlocal:    112 ave 112 max 112 min
Histogram: 1 0 0 0 0 0 0 0 0 0
Nghost:    356 ave 356 max 356 min
Histogram: 1 0 0 0 0 0 0 0 0 0
Neighs:    1256 ave 1256 max 1256 min
Histogram: 1 0 0 0 0 0 0 0 0 0
FullNghs:  2512 ave 2512 max 2512 min
Histogram: 1 0 0 0 0 0 0 0 0 0

Total # of neighbors = 2512
Ave neighs/atom = 22.4286
Neighbor list builds = 0
Dangerous builds = 0
OMP_NUM_THREADS environment is not set. Defaulting to 1 thread. (../comm.cpp:95)
  using 1 OpenMP thread(s) per MPI task
  triclinic box = (0.0 0.0 0.0) to (13.0056 13.0056 13.0056) with tilt (7.96337019763616e-16 7.96337019763616e-16 7.96337019763616e-16)
  1 by 1 by 1 MPI processor grid
  reading atoms ...
  120 atoms
  reading velocities ...
  120 velocities
  read_data CPU = 0.000 secs
Reading potential file ref.lib with DATE: 2012-06-29
  triclinic box = (0.0 0.0 0.0) to (13.0056 13.0056 13.0056) with tilt (7.96337019763616e-16 7.96337019763616e-16 7.96337019763616e-16)
WARNING: No fixes defined, atoms won't move (../verlet.cpp:54)
Neighbor list info ...
  update every 1 steps, delay 10 steps, check yes
  max neighbors/atom: 5000, page size: 100000
  master list distance cutoff = 4.8
  ghost atom cutoff = 4.8
  binsize = 2.4, bins = 6 6 6
  2 neighbor lists, perpetual/occasional/extra = 2 0 0
  (1) pair meam/c, perpetual
      attributes: full, newton on
      pair build: full/bin/atomonly
      stencil: full/bin/3d
      bin: standard
  (2) pair meam/c, perpetual, half/full from (1)
      attributes: half, newton on
      pair build: halffull/newton
      stencil: none
      bin: none
Per MPI rank memory allocation (min/avg/max) = 8.711 | 8.711 | 8.711 Mbytes
TotEng Pxx Pyy Pzz Pxy Pxz Pyz 
  -946.19957   -20433.637   -20433.637   -20433.637 7.0074541e-06 7.0074711e-06 7.0074825e-06 
Loop time of 4.76837e-07 on 1 procs for 0 steps with 120 atoms

209.7% CPU use with 1 MPI tasks x 1 OpenMP threads

MPI task timing breakdown:
Section |  min time  |  avg time  |  max time  |%varavg| %total
---------------------------------------------------------------
Pair    | 0          | 0          | 0          |   0.0 |  0.00
Neigh   | 0          | 0          | 0          |   0.0 |  0.00
Comm    | 0          | 0          | 0          |   0.0 |  0.00
Output  | 0          | 0          | 0          |   0.0 |  0.00
Modify  | 0          | 0          | 0          |   0.0 |  0.00
Other   |            | 4.768e-07  |            |       |100.00

Nlocal:    120 ave 120 max 120 min
Histogram: 1 0 0 0 0 0 0 0 0 0
Nghost:    412 ave 412 max 412 min
Histogram: 1 0 0 0 0 0 0 0 0 0
Neighs:    1456 ave 1456 max 1456 min
Histogram: 1 0 0 0 0 0 0 0 0 0
FullNghs:  2912 ave 2912 max 2912 min
Histogram: 1 0 0 0 0 0 0 0 0 0

Total # of neighbors = 2912
Ave neighs/atom = 24.2667
Neighbor list builds = 0
Dangerous builds = 0
OMP_NUM_THREADS environment is not set. Defaulting to 1 thread. (../comm.cpp:95)
  using 1 OpenMP thread(s) per MPI task
  triclinic box = (0.0 0.0 0.0) to (13.0056 13.0056 13.0056) with tilt (7.96337019763616e-16 7.96337019763616e-16 7.96337019763616e-16)
  1 by 1 by 1 MPI processor grid
  reading atoms ...
  120 atoms
  reading velocities ...
  120 velocities
  read_data CPU = 0.000 secs
Reading potential file ref.lib with DATE: 2012-06-29
  triclinic box = (0.0 0.0 0.0) to (13.0056 13.0056 13.0056) with tilt (7.96337019763616e-16 7.96337019763616e-16 7.96337019763616e-16)
WARNING: No fixes defined, atoms won't move (../verlet.cpp:54)
Neighbor list info ...
  update every 1 steps, delay 10 steps, check yes
  max neighbors/atom: 5000, page size: 100000
  master list distance cutoff = 4.8
  ghost atom cutoff = 4.8
  binsize = 2.4, bins = 6 6 6
  2 neighbor lists, perpetual/occasional/extra = 2 0 0
  (1) pair meam/c, perpetual
      attributes: full, newton on
      pair build: full/bin/atomonly
      stencil: full/bin/3d
      bin: standard
  (2) pair meam/c, perpetual, half/full from (1)
      attributes: half, newton on
      pair build: halffull/newton
      stencil: none
      bin: none
Per MPI rank memory allocation (min/avg/max) = 8.697 | 8.697 | 8.697 Mbytes
TotEng Pxx Pyy Pzz Pxy Pxz Pyz 
  -933.73085   -3089.1024   -3089.1024   -3089.1024 2.4939297e-05 2.4939246e-05 2.4939274e-05 
Loop time of 7.15256e-07 on 1 procs for 0 steps with 120 atoms

139.8% CPU use with 1 MPI tasks x 1 OpenMP threads

MPI task timing breakdown:
Section |  min time  |  avg time  |  max time  |%varavg| %total
---------------------------------------------------------------
Pair    | 0          | 0          | 0          |   0.0 |  0.00
Neigh   | 0          | 0          | 0          |   0.0 |  0.00
Comm    | 0          | 0          | 0          |   0.0 |  0.00
Output  | 0          | 0          | 0          |   0.0 |  0.00
Modify  | 0          | 0          | 0          |   0.0 |  0.00
Other   |            | 7.153e-07  |            |       |100.00

Nlocal:    120 ave 120 max 120 min
Histogram: 1 0 0 0 0 0 0 0 0 0
Nghost:    375 ave 375 max 375 min
Histogram: 1 0 0 0 0 0 0 0 0 0
Neighs:    1456 ave 1456 max 1456 min
Histogram: 1 0 0 0 0 0 0 0 0 0
FullNghs:  2912 ave 2912 max 2912 min
Histogram: 1 0 0 0 0 0 0 0 0 0

Total # of neighbors = 2912
Ave neighs/atom = 24.2667
Neighbor list builds = 0
Dangerous builds = 0
OMP_NUM_THREADS environment is not set. Defaulting to 1 thread. (../comm.cpp:95)
  using 1 OpenMP thread(s) per MPI task
  triclinic box = (0.0 0.0 0.0) to (13.0056 13.0056 13.0056) with tilt (7.96337019763616e-16 7.96337019763616e-16 7.96337019763616e-16)
  1 by 1 by 1 MPI processor grid
  reading atoms ...
  112 atoms
  reading velocities ...
  112 velocities
  read_data CPU = 0.000 secs
Reading potential file ref.lib with DATE: 2012-06-29
  triclinic box = (0.0 0.0 0.0) to (13.0056 13.0056 13.0056) with tilt (7.96337019763616e-16 7.96337019763616e-16 7.96337019763616e-16)
WARNING: No fixes defined, atoms won't move (../verlet.cpp:54)
Neighbor list info ...
  update every 1 steps, delay 10 steps, check yes
  max neighbors/atom: 5000, page size: 100000
  master list distance cutoff = 4.8
  ghost atom cutoff = 4.8
  binsize = 2.4, bins = 6 6 6
  2 neighbor lists, perpetual/occasional/extra = 2 0 0
  (1) pair meam/c, perpetual
      attributes: full, newton on
      pair build: full/bin/atomonly
      stencil: full/bin/3d
      bin: standard
  (2) pair meam/c, perpetual, half/full from (1)
      attributes: half, newton on
      pair build: halffull/newton
      stencil: none
      bin: none
Per MPI rank memory allocation (min/avg/max) = 8.692 | 8.692 | 8.692 Mbytes
TotEng Pxx Pyy Pzz Pxy Pxz Pyz 
  -845.19918   -48037.399   -48037.399   -48037.399    1192.4349    1192.4349    1192.4349 
Loop time of 4.76837e-07 on 1 procs for 0 steps with 112 atoms

209.7% CPU use with 1 MPI tasks x 1 OpenMP threads

MPI task timing breakdown:
Section |  min time  |  avg time  |  max time  |%varavg| %total
---------------------------------------------------------------
Pair    | 0          | 0          | 0          |   0.0 |  0.00
Neigh   | 0          | 0          | 0          |   0.0 |  0.00
Comm    | 0          | 0          | 0          |   0.0 |  0.00
Output  | 0          | 0          | 0          |   0.0 |  0.00
Modify  | 0          | 0          | 0          |   0.0 |  0.00
Other   |            | 4.768e-07  |            |       |100.00

Nlocal:    112 ave 112 max 112 min
Histogram: 1 0 0 0 0 0 0 0 0 0
Nghost:    356 ave 356 max 356 min
Histogram: 1 0 0 0 0 0 0 0 0 0
Neighs:    1256 ave 1256 max 1256 min
Histogram: 1 0 0 0 0 0 0 0 0 0
FullNghs:  2512 ave 2512 max 2512 min
Histogram: 1 0 0 0 0 0 0 0 0 0

Total # of neighbors = 2512
Ave neighs/atom = 22.4286
Neighbor list builds = 0
Dangerous builds = 0
OMP_NUM_THREADS environment is not set. Defaulting to 1 thread. (../comm.cpp:95)
  using 1 OpenMP thread(s) per MPI task
  triclinic box = (0.0 0.0 0.0) to (13.4164 13.4164 13.4164) with tilt (8.21490434271128e-16 8.21490434271128e-16 8.21490434271128e-16)
  1 by 1 by 1 MPI processor grid
  reading atoms ...
  120 atoms
  reading velocities ...
  120 velocities
  read_data CPU = 0.000 secs
Reading potential file ref.lib with DATE: 2012-06-29
  triclinic box = (0.0 0.0 0.0) to (13.4164 13.4164 13.4164) with tilt (8.21490434271128e-16 8.21490434271128e-16 8.21490434271128e-16)
WARNING: No fixes defined, atoms won't move (../verlet.cpp:54)
Neighbor list info ...
  update every 1 steps, delay 10 steps, check yes
  max neighbors/atom: 5000, page size: 100000
  master list distance cutoff = 4.8
  ghost atom cutoff = 4.8
  binsize = 2.4, bins = 6 6 6
  2 neighbor lists, perpetual/occasional/extra = 2 0 0
  (1) pair meam/c, perpetual
      attributes: full, newton on
      pair build: full/bin/atomonly
      stencil: full/bin/3d
      bin: standard
  (2) pair meam/c, perpetual, half/full from (1)
      attributes: half, newton on
      pair build: halffull/newton
      stencil: none
      bin: none
Per MPI rank memory allocation (min/avg/max) = 8.711 | 8.711 | 8.711 Mbytes
TotEng Pxx Pyy Pzz Pxy Pxz Pyz 
  -910.65872   -58793.571   -58793.571   -58793.571 4.2101129e-06 4.2100794e-06 4.2100552e-06 
Loop time of 7.15256e-07 on 1 procs for 0 steps with 120 atoms

139.8% CPU use with 1 MPI tasks x 1 OpenMP threads

MPI task timing breakdown:
Section |  min time  |  avg time  |  max time  |%varavg| %total
---------------------------------------------------------------
Pair    | 0          | 0          | 0          |   0.0 |  0.00
Neigh   | 0          | 0          | 0          |   0.0 |  0.00
Comm    | 0          | 0          | 0          |   0.0 |  0.00
Output  | 0          | 0          | 0          |   0.0 |  0.00
Modify  | 0          | 0          | 0          |   0.0 |  0.00
Other   |            | 7.153e-07  |            |       |100.00

Nlocal:    120 ave 120 max 120 min
Histogram: 1 0 0 0 0 0 0 0 0 0
Nghost:    412 ave 412 max 412 min
Histogram: 1 0 0 0 0 0 0 0 0 0
Neighs:    1456 ave 1456 max 1456 min
Histogram: 1 0 0 0 0 0 0 0 0 0
FullNghs:  2912 ave 2912 max 2912 min
Histogram: 1 0 0 0 0 0 0 0 0 0

Total # of neighbors = 2912
Ave neighs/atom = 24.2667
Neighbor list builds = 0
Dangerous builds = 0
OMP_NUM_THREADS environment is not set. Defaulting to 1 thread. (../comm.cpp:95)
  using 1 OpenMP thread(s) per MPI task
  triclinic box = (0.0 0.0 0.0) to (13.4164 13.4164 13.4164) with tilt (8.21490434271128e-16 8.21490434271128e-16 8.21490434271128e-16)
  1 by 1 by 1 MPI processor grid
  reading atoms ...
  120 atoms
  reading velocities ...
  120 velocities
  read_data CPU = 0.000 secs
Reading potential file ref.lib with DATE: 2012-06-29
  triclinic box = (0.0 0.0 0.0) to (13.4164 13.4164 13.4164) with tilt (8.21490434271128e-16 8.21490434271128e-16 8.21490434271128e-16)
WARNING: No fixes defined, atoms won't move (../verlet.cpp:54)
Neighbor list info ...
  update every 1 steps, delay 10 steps, check yes
  max neighbors/atom: 5000, page size: 100000
  master list distance cutoff = 4.8
  ghost atom cutoff = 4.8
  binsize = 2.4, bins = 6 6 6
  2 neighbor lists, perpetual/occasional/extra = 2 0 0
  (1) pair meam/c, perpetual
      attributes: full, newton on
      pair build: full/bin/atomonly
      stencil: full/bin/3d
      bin: standard
  (2) pair meam/c, perpetual, half/full from (1)
      attributes: half, newton on
      pair build: halffull/newton
      stencil: none
      bin: none
Per MPI rank memory allocation (min/avg/max) = 8.697 | 8.697 | 8.697 Mbytes
TotEng Pxx Pyy Pzz Pxy Pxz Pyz 
  -904.97424   -53784.845   -53784.845   -53784.845 1.7015395e-05 1.7015428e-05 1.7015471e-05 
Loop time of 7.15256e-07 on 1 procs for 0 steps with 120 atoms

139.8% CPU use with 1 MPI tasks x 1 OpenMP threads

MPI task timing breakdown:
Section |  min time  |  avg time  |  max time  |%varavg| %total
---------------------------------------------------------------
Pair    | 0          | 0          | 0          |   0.0 |  0.00
Neigh   | 0          | 0          | 0          |   0.0 |  0.00
Comm    | 0          | 0          | 0          |   0.0 |  0.00
Output  | 0          | 0          | 0          |   0.0 |  0.00
Modify  | 0          | 0          | 0          |   0.0 |  0.00
Other   |            | 7.153e-07  |            |       |100.00

Nlocal:    120 ave 120 max 120 min
Histogram: 1 0 0 0 0 0 0 0 0 0
Nghost:    375 ave 375 max 375 min
Histogram: 1 0 0 0 0 0 0 0 0 0
Neighs:    1456 ave 1456 max 1456 min
Histogram: 1 0 0 0 0 0 0 0 0 0
FullNghs:  2912 ave 2912 max 2912 min
Histogram: 1 0 0 0 0 0 0 0 0 0

Total # of neighbors = 2912
Ave neighs/atom = 24.2667
Neighbor list builds = 0
Dangerous builds = 0
OMP_NUM_THREADS environment is not set. Defaulting to 1 thread. (../comm.cpp:95)
  using 1 OpenMP thread(s) per MPI task
  triclinic box = (0.0 0.0 0.0) to (13.4164 13.4164 13.4164) with tilt (8.21490434271128e-16 8.21490434271128e-16 8.21490434271128e-16)
  1 by 1 by 1 MPI processor grid
  reading atoms ...
  112 atoms
  reading velocities ...
  112 velocities
  read_data CPU = 0.000 secs
Reading potential file ref.lib with DATE: 2012-06-29
  triclinic box = (0.0 0.0 0.0) to (13.4164 13.4164 13.4164) with tilt (8.21490434271128e-16 8.21490434271128e-16 8.21490434271128e-16)
WARNING: No fixes defined, atoms won't move (../verlet.cpp:54)
Neighbor list info ...
  update every 1 steps, delay 10 steps, check yes
  max neighbors/atom: 5000, page size: 100000
  master list distance cutoff = 4.8
  ghost atom cutoff = 4.8
  binsize = 2.4, bins = 6 6 6
  2 neighbor lists, perpetual/occasional/extra = 2 0 0
  (1) pair meam/c, perpetual
      attributes: full, newton on
      pair build: full/bin/atomonly
      stencil: full/bin/3d
      bin: standard
  (2) pair meam/c, perpetual, half/full from (1)
      attributes: half, newton on
      pair build: halffull/newton
      stencil: none
      bin: none
Per MPI rank memory allocation (min/avg/max) = 8.692 | 8.692 | 8.692 Mbytes
TotEng Pxx Pyy Pzz Pxy Pxz Pyz 
  -818.93709   -80248.714   -80248.714   -80248.714    590.61359    590.61359    590.61359 
Loop time of 4.76837e-07 on 1 procs for 0 steps with 112 atoms

209.7% CPU use with 1 MPI tasks x 1 OpenMP threads

MPI task timing breakdown:
Section |  min time  |  avg time  |  max time  |%varavg| %total
---------------------------------------------------------------
Pair    | 0          | 0          | 0          |   0.0 |  0.00
Neigh   | 0          | 0          | 0          |   0.0 |  0.00
Comm    | 0          | 0          | 0          |   0.0 |  0.00
Output  | 0          | 0          | 0          |   0.0 |  0.00
Modify  | 0          | 0          | 0          |   0.0 |  0.00
Other   |            | 4.768e-07  |            |       |100.00

Nlocal:    112 ave 112 max 112 min
Histogram: 1 0 0 0 0 0 0 0 0 0
Nghost:    356 ave 356 max 356 min
Histogram: 1 0 0 0 0 0 0 0 0 0
Neighs:    1256 ave 1256 max 1256 min
Histogram: 1 0 0 0 0 0 0 0 0 0
FullNghs:  2512 ave 2512 max 2512 min
Histogram: 1 0 0 0 0 0 0 0 0 0

Total # of neighbors = 2512
Ave neighs/atom = 22.4286
Neighbor list builds = 0
Dangerous builds = 0
OMP_NUM_THREADS environment is not set. Defaulting to 1 thread. (../comm.cpp:95)
  using 1 OpenMP thread(s) per MPI task
  triclinic box = (0.0 0.0 0.0) to (12.7546 12.7546 12.7546) with tilt (7.80968210023144e-16 7.80968210023144e-16 7.80968210023144e-16)
  1 by 1 by 1 MPI processor grid
  reading atoms ...
  120 atoms
  reading velocities ...
  120 velocities
  read_data CPU = 0.000 secs
Reading potential file ref.lib with DATE: 2012-06-29
  triclinic box = (0.0 0.0 0.0) to (12.7546 12.7546 12.7546) with tilt (7.80968210023144e-16 7.80968210023144e-16 7.80968210023144e-16)
WARNING: No fixes defined, atoms won't move (../verlet.cpp:54)
Neighbor list info ...
  update every 1 steps, delay 10 steps, check yes
  max neighbors/atom: 5000, page size: 100000
  master list distance cutoff = 4.8
  ghost atom cutoff = 4.8
  binsize = 2.4, bins = 6 6 6
  2 neighbor lists, perpetual/occasional/extra = 2 0 0
  (1) pair meam/c, perpetual
      attributes: full, newton on
      pair build: full/bin/atomonly
      stencil: full/bin/3d
      bin: standard
  (2) pair meam/c, perpetual, half/full from (1)
      attributes: half, newton on
      pair build: halffull/newton
      stencil: none
      bin: none
Per MPI rank memory allocation (min/avg/max) = 8.779 | 8.779 | 8.779 Mbytes
TotEng Pxx Pyy Pzz Pxy Pxz Pyz 
  -722.44309   -14218.365   -14218.365   -14218.365 -4.6742116e-08 -4.6758377e-08 -4.6752651e-08 
Loop time of 4.76837e-07 on 1 procs for 0 steps with 120 atoms

0.0% CPU use with 1 MPI tasks x 1 OpenMP threads

MPI task timing breakdown:
Section |  min time  |  avg time  |  max time  |%varavg| %total
---------------------------------------------------------------
Pair    | 0          | 0          | 0          |   0.0 |  0.00
Neigh   | 0          | 0          | 0          |   0.0 |  0.00
Comm    | 0          | 0          | 0          |   0.0 |  0.00
Output  | 0          | 0          | 0          |   0.0 |  0.00
Modify  | 0          | 0          | 0          |   0.0 |  0.00
Other   |            | 4.768e-07  |            |       |100.00

Nlocal:    120 ave 120 max 120 min
Histogram: 1 0 0 0 0 0 0 0 0 0
Nghost:    671 ave 671 max 671 min
Histogram: 1 0 0 0 0 0 0 0 0 0
Neighs:    1456 ave 1456 max 1456 min
Histogram: 1 0 0 0 0 0 0 0 0 0
FullNghs:  2912 ave 2912 max 2912 min
Histogram: 1 0 0 0 0 0 0 0 0 0

Total # of neighbors = 2912
Ave neighs/atom = 24.2667
Neighbor list builds = 0
Dangerous builds = 0
OMP_NUM_THREADS environment is not set. Defaulting to 1 thread. (../comm.cpp:95)
  using 1 OpenMP thread(s) per MPI task
  triclinic box = (0.0 0.0 0.0) to (12.7546 12.7546 12.7546) with tilt (7.80968210023144e-16 7.80968210023144e-16 7.80968210023144e-16)
  1 by 1 by 1 MPI processor grid
  reading atoms ...
  120 atoms
  reading velocities ...
  120 velocities
  read_data CPU = 0.000 secs
Reading potential file ref.lib with DATE: 2012-06-29
  triclinic box = (0.0 0.0 0.0) to (12.7546 12.7546 12.7546) with tilt (7.80968210023144e-16 7.80968210023144e-16 7.80968210023144e-16)
WARNING: No fixes defined, atoms won't move (../verlet.cpp:54)
Neighbor list info ...
  update every 1 steps, delay 10 steps, check yes
  max neighbors/atom: 5000, page size: 100000
  master list distance cutoff = 4.8
  ghost atom cutoff = 4.8
  binsize = 2.4, bins = 6 6 6
  2 neighbor lists, perpetual/occasional/extra = 2 0 0
  (1) pair meam/c, perpetual
      attributes: full, newton on
      pair build: full/bin/atomonly
      stencil: full/bin/3d
      bin: standard
  (2) pair meam/c, perpetual, half/full from (1)
      attributes: half, newton on
      pair build: halffull/newton
      stencil: none
      bin: none
Per MPI rank memory allocation (min/avg/max) = 8.779 | 8.779 | 8.779 Mbytes
TotEng Pxx Pyy Pzz Pxy Pxz Pyz 
  -741.78116   -8727.8808   -8727.8808   -8727.8808 1.8093087e-07 1.8094853e-07 1.809474e-07 
Loop time of 4.76837e-07 on 1 procs for 0 steps with 120 atoms

209.7% CPU use with 1 MPI tasks x 1 OpenMP threads

MPI task timing breakdown:
Section |  min time  |  avg time  |  max time  |%varavg| %total
---------------------------------------------------------------
Pair    | 0          | 0          | 0          |   0.0 |  0.00
Neigh   | 0          | 0          | 0          |   0.0 |  0.00
Comm    | 0          | 0          | 0          |   0.0 |  0.00
Output  | 0          | 0          | 0          |   0.0 |  0.00
Modify  | 0          | 0          | 0          |   0.0 |  0.00
Other   |            | 4.768e-07  |            |       |100.00

Nlocal:    120 ave 120 max 120 min
Histogram: 1 0 0 0 0 0 0 0 0 0
Nghost:    671 ave 671 max 671 min
Histogram: 1 0 0 0 0 0 0 0 0 0
Neighs:    1456 ave 1456 max 1456 min
Histogram: 1 0 0 0 0 0 0 0 0 0
FullNghs:  2912 ave 2912 max 2912 min
Histogram: 1 0 0 0 0 0 0 0 0 0

Total # of neighbors = 2912
Ave neighs/atom = 24.2667
Neighbor list builds = 0
Dangerous builds = 0
OMP_NUM_THREADS environment is not set. Defaulting to 1 thread. (../comm.cpp:95)
  using 1 OpenMP thread(s) per MPI task
  triclinic box = (0.0 0.0 0.0) to (12.7546 12.7546 12.7546) with tilt (7.80968210023144e-16 7.80968210023144e-16 7.80968210023144e-16)
  1 by 1 by 1 MPI processor grid
  reading atoms ...
  112 atoms
  reading velocities ...
  112 velocities
  read_data CPU = 0.000 secs
Reading potential file ref.lib with DATE: 2012-06-29
  triclinic box = (0.0 0.0 0.0) to (12.7546 12.7546 12.7546) with tilt (7.80968210023144e-16 7.80968210023144e-16 7.80968210023144e-16)
WARNING: No fixes defined, atoms won't move (../verlet.cpp:54)
Neighbor list info ...
  update every 1 steps, delay 10 steps, check yes
  max neighbors/atom: 5000, page size: 100000
  master list distance cutoff = 4.8
  ghost atom cutoff = 4.8
  binsize = 2.4, bins = 6 6 6
  2 neighbor lists, perpetual/occasional/extra = 2 0 0
  (1) pair meam/c, perpetual
      attributes: full, newton on
      pair build: full/bin/atomonly
      stencil: full/bin/3d
      bin: standard
  (2) pair meam/c, perpetual, half/full from (1)
      attributes: half, newton on
      pair build: halffull/newton
      stencil: none
      bin: none
Per MPI rank memory allocation (min/avg/max) = 8.76 | 8.76 | 8.76 Mbytes
TotEng Pxx Pyy Pzz Pxy Pxz Pyz 
  -661.36693   -41457.675   -41457.675   -41457.675    988.30391    988.30391    988.30391 
Loop time of 4.76837e-07 on 1 procs for 0 steps with 112 atoms

209.7% CPU use with 1 MPI tasks x 1 OpenMP threads

MPI task timing breakdown:
Section |  min time  |  avg time  |  max time  |%varavg| %total
---------------------------------------------------------------
Pair    | 0          | 0          | 0          |   0.0 |  0.00
Neigh   | 0          | 0          | 0          |   0.0 |  0.00
Comm    | 0          | 0          | 0          |   0.0 |  0.00
Output  | 0          | 0          | 0          |   0.0 |  0.00
Modify  | 0          | 0          | 0          |   0.0 |  0.00
Other   |            | 4.768e-07  |            |       |100.00

Nlocal:    112 ave 112 max 112 min
Histogram: 1 0 0 0 0 0 0 0 0 0
Nghost:    615 ave 615 max 615 min
Histogram: 1 0 0 0 0 0 0 0 0 0
Neighs:    1256 ave 1256 max 1256 min
Histogram: 1 0 0 0 0 0 0 0 0 0
FullNghs:  2512 ave 2512 max 2512 min
Histogram: 1 0 0 0 0 0 0 0 0 0

Total # of neighbors = 2512
Ave neighs/atom = 22.4286
Neighbor list builds = 0
Dangerous builds = 0
OMP_NUM_THREADS environment is not set. Defaulting to 1 thread. (../comm.cpp:95)
  using 1 OpenMP thread(s) per MPI task
  triclinic box = (0.0 0.0 0.0) to (12.7172 12.7172 12.7172) with tilt (7.78678196141496e-16 7.78678196141496e-16 7.78678196141496e-16)
  1 by 1 by 1 MPI processor grid
  reading atoms ...
  120 atoms
  reading velocities ...
  120 velocities
  read_data CPU = 0.000 secs
Reading potential file ref.lib with DATE: 2012-06-29
  triclinic box = (0.0 0.0 0.0) to (12.7172 12.7172 12.7172) with tilt (7.78678196141496e-16 7.78678196141496e-16 7.78678196141496e-16)
WARNING: No fixes defined, atoms won't move (../verlet.cpp:54)
Neighbor list info ...
  update every 1 steps, delay 10 steps, check yes
  max neighbors/atom: 5000, page size: 100000
  master list distance cutoff = 4.8
  ghost atom cutoff = 4.8
  binsize = 2.4, bins = 6 6 6
  2 neighbor lists, perpetual/occasional/extra = 2 0 0
  (1) pair meam/c, perpetual
      attributes: full, newton on
      pair build: full/bin/atomonly
      stencil: full/bin/3d
      bin: standard
  (2) pair meam/c, perpetual, half/full from (1)
      attributes: half, newton on
      pair build: halffull/newton
      stencil: none
      bin: none
Per MPI rank memory allocation (min/avg/max) = 8.779 | 8.779 | 8.779 Mbytes
TotEng Pxx Pyy Pzz Pxy Pxz Pyz 
  -893.61402    -97729.43    -97729.43    -97729.43 -1.6213359e-06 -1.6212836e-06 -1.6213813e-06 
Loop time of 4.76837e-07 on 1 procs for 0 steps with 120 atoms

209.7% CPU use with 1 MPI tasks x 1 OpenMP threads

MPI task timing breakdown:
Section |  min time  |  avg time  |  max time  |%varavg| %total
---------------------------------------------------------------
Pair    | 0          | 0          | 0          |   0.0 |  0.00
Neigh   | 0          | 0          | 0          |   0.0 |  0.00
Comm    | 0          | 0          | 0          |   0.0 |  0.00
Output  | 0          | 0          | 0          |   0.0 |  0.00
Modify  | 0          | 0          | 0          |   0.0 |  0.00
Other   |            | 4.768e-07  |            |       |100.00

Nlocal:    120 ave 120 max 120 min
Histogram: 1 0 0 0 0 0 0 0 0 0
Nghost:    671 ave 671 max 671 min
Histogram: 1 0 0 0 0 0 0 0 0 0
Neighs:    1456 ave 1456 max 1456 min
Histogram: 1 0 0 0 0 0 0 0 0 0
FullNghs:  2912 ave 2912 max 2912 min
Histogram: 1 0 0 0 0 0 0 0 0 0

Total # of neighbors = 2912
Ave neighs/atom = 24.2667
Neighbor list builds = 0
Dangerous builds = 0
OMP_NUM_THREADS environment is not set. Defaulting to 1 thread. (../comm.cpp:95)
  using 1 OpenMP thread(s) per MPI task
  triclinic box = (0.0 0.0 0.0) to (12.7172 12.7172 12.7172) with tilt (7.78678196141496e-16 7.78678196141496e-16 7.78678196141496e-16)
  1 by 1 by 1 MPI processor grid
  reading atoms ...
  120 atoms
  reading velocities ...
  120 velocities
  read_data CPU = 0.000 secs
Reading potential file ref.lib with DATE: 2012-06-29
  triclinic box = (0.0 0.0 0.0) to (12.7172 12.7172 12.7172) with tilt (7.78678196141496e-16 7.78678196141496e-16 7.78678196141496e-16)
WARNING: No fixes defined, atoms won't move (../verlet.cpp:54)
Neighbor list info ...
  update every 1 steps, delay 10 steps, check yes
  max neighbors/atom: 5000, page size: 100000
  master list distance cutoff = 4.8
  ghost atom cutoff = 4.8
  binsize = 2.4, bins = 6 6 6
  2 neighbor lists, perpetual/occasional/extra = 2 0 0
  (1) pair meam/c, perpetual
      attributes: full, newton on
      pair build: full/bin/atomonly
      stencil: full/bin/3d
      bin: standard
  (2) pair meam/c, perpetual, half/full from (1)
      attributes: half, newton on
      pair build: halffull/newton
      stencil: none
      bin: none
Per MPI rank memory allocation (min/avg/max) = 8.779 | 8.779 | 8.779 Mbytes
TotEng Pxx Pyy Pzz Pxy Pxz Pyz 
   -879.9378   -88627.309   -88627.309   -88627.309 2.0652247e-07 2.0646643e-07 2.0651917e-07 
Loop time of 7.15256e-07 on 1 procs for 0 steps with 120 atoms

139.8% CPU use with 1 MPI tasks x 1 OpenMP threads

MPI task timing breakdown:
Section |  min time  |  avg time  |  max time  |%varavg| %total
---------------------------------------------------------------
Pair    | 0          | 0          | 0          |   0.0 |  0.00
Neigh   | 0          | 0          | 0          |   0.0 |  0.00
Comm    | 0          | 0          | 0          |   0.0 |  0.00
Output  | 0          | 0          | 0          |   0.0 |  0.00
Modify  | 0          | 0          | 0          |   0.0 |  0.00
Other   |            | 7.153e-07  |            |       |100.00

Nlocal:    120 ave 120 max 120 min
Histogram: 1 0 0 0 0 0 0 0 0 0
Nghost:    671 ave 671 max 671 min
Histogram: 1 0 0 0 0 0 0 0 0 0
Neighs:    1456 ave 1456 max 1456 min
Histogram: 1 0 0 0 0 0 0 0 0 0
FullNghs:  2912 ave 2912 max 2912 min
Histogram: 1 0 0 0 0 0 0 0 0 0

Total # of neighbors = 2912
Ave neighs/atom = 24.2667
Neighbor list builds = 0
Dangerous builds = 0
OMP_NUM_THREADS environment is not set. Defaulting to 1 thread. (../comm.cpp:95)
  using 1 OpenMP thread(s) per MPI task
  triclinic box = (0.0 0.0 0.0) to (12.7172 12.7172 12.7172) with tilt (7.78678196141496e-16 7.78678196141496e-16 7.78678196141496e-16)
  1 by 1 by 1 MPI processor grid
  reading atoms ...
  112 atoms
  reading velocities ...
  112 velocities
  read_data CPU = 0.000 secs
Reading potential file ref.lib with DATE: 2012-06-29
  triclinic box = (0.0 0.0 0.0) to (12.7172 12.7172 12.7172) with tilt (7.78678196141496e-16 7.78678196141496e-16 7.78678196141496e-16)
WARNING: No fixes defined, atoms won't move (../verlet.cpp:54)
Neighbor list info ...
  update every 1 steps, delay 10 steps, check yes
  max neighbors/atom: 5000, page size: 100000
  master list distance cutoff = 4.8
  ghost atom cutoff = 4.8
  binsize = 2.4, bins = 6 6 6
  2 neighbor lists, perpetual/occasional/extra = 2 0 0
  (1) pair meam/c, perpetual
      attributes: full, newton on
      pair build: full/bin/atomonly
      stencil: full/bin/3d
      bin: standard
  (2) pair meam/c, perpetual, half/full from (1)
      attributes: half, newton on
      pair build: halffull/newton
      stencil: none
      bin: none
Per MPI rank memory allocation (min/avg/max) = 8.76 | 8.76 | 8.76 Mbytes
TotEng Pxx Pyy Pzz Pxy Pxz Pyz 
  -793.15428   -119642.59   -119642.59   -119642.59    767.67411    767.67411    767.67411 
Loop time of 7.15256e-07 on 1 procs for 0 steps with 112 atoms

139.8% CPU use with 1 MPI tasks x 1 OpenMP threads

MPI task timing breakdown:
Section |  min time  |  avg time  |  max time  |%varavg| %total
---------------------------------------------------------------
Pair    | 0          | 0          | 0          |   0.0 |  0.00
Neigh   | 0          | 0          | 0          |   0.0 |  0.00
Comm    | 0          | 0          | 0          |   0.0 |  0.00
Output  | 0          | 0          | 0          |   0.0 |  0.00
Modify  | 0          | 0          | 0          |   0.0 |  0.00
Other   |            | 7.153e-07  |            |       |100.00

Nlocal:    112 ave 112 max 112 min
Histogram: 1 0 0 0 0 0 0 0 0 0
Nghost:    615 ave 615 max 615 min
Histogram: 1 0 0 0 0 0 0 0 0 0
Neighs:    1256 ave 1256 max 1256 min
Histogram: 1 0 0 0 0 0 0 0 0 0
FullNghs:  2512 ave 2512 max 2512 min
Histogram: 1 0 0 0 0 0 0 0 0 0

Total # of neighbors = 2512
Ave neighs/atom = 22.4286
Neighbor list builds = 0
Dangerous builds = 0
OMP_NUM_THREADS environment is not set. Defaulting to 1 thread. (../comm.cpp:95)
  using 1 OpenMP thread(s) per MPI task
  triclinic box = (0.0 0.0 0.0) to (13.0778 13.0778 13.0778) with tilt (8.00757848700914e-16 8.00757848700914e-16 8.00757848700914e-16)
  1 by 1 by 1 MPI processor grid
  reading atoms ...
  120 atoms
  reading velocities ...
  120 velocities
  read_data CPU = 0.000 secs
Reading potential file ref.lib with DATE: 2012-06-29
  triclinic box = (0.0 0.0 0.0) to (13.0778 13.0778 13.0778) with tilt (8.00757848700914e-16 8.00757848700914e-16 8.00757848700914e-16)
WARNING: No fixes defined, atoms won't move (../verlet.cpp:54)
Neighbor list info ...
  update every 1 steps, delay 10 steps, check yes
  max neighbors/atom: 5000, page size: 100000
  master list distance cutoff = 4.8
  ghost atom cutoff = 4.8
  binsize = 2.4, bins = 6 6 6
  2 neighbor lists, perpetual/occasional/extra = 2 0 0
  (1) pair meam/c, perpetual
      attributes: full, newton on
      pair build: full/bin/atomonly
      stencil: full/bin/3d
      bin: standard
  (2) pair meam/c, perpetual, half/full from (1)
      attributes: half, newton on
      pair build: halffull/newton
      stencil: none
      bin: none
Per MPI rank memory allocation (min/avg/max) = 8.711 | 8.711 | 8.711 Mbytes
TotEng Pxx Pyy Pzz Pxy Pxz Pyz 
  -868.65141    -82761.93    -82761.93    -82761.93 -5.486441e-06 -5.486399e-06 -5.486495e-06 
Loop time of 4.76837e-07 on 1 procs for 0 steps with 120 atoms

209.7% CPU use with 1 MPI tasks x 1 OpenMP threads

MPI task timing breakdown:
Section |  min time  |  avg time  |  max time  |%varavg| %total
---------------------------------------------------------------
Pair    | 0          | 0          | 0          |   0.0 |  0.00
Neigh   | 0          | 0          | 0          |   0.0 |  0.00
Comm    | 0          | 0          | 0          |   0.0 |  0.00
Output  | 0          | 0          | 0          |   0.0 |  0.00
Modify  | 0          | 0          | 0          |   0.0 |  0.00
Other   |            | 4.768e-07  |            |       |100.00

Nlocal:    120 ave 120 max 120 min
Histogram: 1 0 0 0 0 0 0 0 0 0
Nghost:    412 ave 412 max 412 min
Histogram: 1 0 0 0 0 0 0 0 0 0
Neighs:    1456 ave 1456 max 1456 min
Histogram: 1 0 0 0 0 0 0 0 0 0
FullNghs:  2912 ave 2912 max 2912 min
Histogram: 1 0 0 0 0 0 0 0 0 0

Total # of neighbors = 2912
Ave neighs/atom = 24.2667
Neighbor list builds = 0
Dangerous builds = 0
OMP_NUM_THREADS environment is not set. Defaulting to 1 thread. (../comm.cpp:95)
  using 1 OpenMP thread(s) per MPI task
  triclinic box = (0.0 0.0 0.0) to (13.0778 13.0778 13.0778) with tilt (8.00757848700914e-16 8.00757848700914e-16 8.00757848700914e-16)
  1 by 1 by 1 MPI processor grid
  reading atoms ...
  120 atoms
  reading velocities ...
  120 velocities
  read_data CPU = 0.000 secs
Reading potential file ref.lib with DATE: 2012-06-29
  triclinic box = (0.0 0.0 0.0) to (13.0778 13.0778 13.0778) with tilt (8.00757848700914e-16 8.00757848700914e-16 8.00757848700914e-16)
WARNING: No fixes defined, atoms won't move (../verlet.cpp:54)
Neighbor list info ...
  update every 1 steps, delay 10 steps, check yes
  max neighbors/atom: 5000, page size: 100000
  master list distance cutoff = 4.8
  ghost atom cutoff = 4.8
  binsize = 2.4, bins = 6 6 6
  2 neighbor lists, perpetual/occasional/extra = 2 0 0
  (1) pair meam/c, perpetual
      attributes: full, newton on
      pair build: full/bin/atomonly
      stencil: full/bin/3d
      bin: standard
  (2) pair meam/c, perpetual, half/full from (1)
      attributes: half, newton on
      pair build: halffull/newton
      stencil: none
      bin: none
Per MPI rank memory allocation (min/avg/max) = 8.697 | 8.697 | 8.697 Mbytes
TotEng Pxx Pyy Pzz Pxy Pxz Pyz 
  -860.93033   -86585.921   -86585.921   -86585.921 2.7310109e-05 2.7310133e-05 2.7310144e-05 
Loop time of 4.76837e-07 on 1 procs for 0 steps with 120 atoms

209.7% CPU use with 1 MPI tasks x 1 OpenMP threads

MPI task timing breakdown:
Section |  min time  |  avg time  |  max time  |%varavg| %total
---------------------------------------------------------------
Pair    | 0          | 0          | 0          |   0.0 |  0.00
Neigh   | 0          | 0          | 0          |   0.0 |  0.00
Comm    | 0          | 0          | 0          |   0.0 |  0.00
Output  | 0          | 0          | 0          |   0.0 |  0.00
Modify  | 0          | 0          | 0          |   0.0 |  0.00
Other   |            | 4.768e-07  |            |       |100.00

Nlocal:    120 ave 120 max 120 min
Histogram: 1 0 0 0 0 0 0 0 0 0
Nghost:    375 ave 375 max 375 min
Histogram: 1 0 0 0 0 0 0 0 0 0
Neighs:    1456 ave 1456 max 1456 min
Histogram: 1 0 0 0 0 0 0 0 0 0
FullNghs:  2912 ave 2912 max 2912 min
Histogram: 1 0 0 0 0 0 0 0 0 0

Total # of neighbors = 2912
Ave neighs/atom = 24.2667
Neighbor list builds = 0
Dangerous builds = 0
OMP_NUM_THREADS environment is not set. Defaulting to 1 thread. (../comm.cpp:95)
  using 1 OpenMP thread(s) per MPI task
  triclinic box = (0.0 0.0 0.0) to (13.0778 13.0778 13.0778) with tilt (8.00757848700914e-16 8.00757848700914e-16 8.00757848700914e-16)
  1 by 1 by 1 MPI processor grid
  reading atoms ...
  112 atoms
  reading velocities ...
  112 velocities
  read_data CPU = 0.000 secs
Reading potential file ref.lib with DATE: 2012-06-29
  triclinic box = (0.0 0.0 0.0) to (13.0778 13.0778 13.0778) with tilt (8.00757848700914e-16 8.00757848700914e-16 8.00757848700914e-16)
WARNING: No fixes defined, atoms won't move (../verlet.cpp:54)
Neighbor list info ...
  update every 1 steps, delay 10 steps, check yes
  max neighbors/atom: 5000, page size: 100000
  master list distance cutoff = 4.8
  ghost atom cutoff = 4.8
  binsize = 2.4, bins = 6 6 6
  2 neighbor lists, perpetual/occasional/extra = 2 0 0
  (1) pair meam/c, perpetual
      attributes: full, newton on
      pair build: full/bin/atomonly
      stencil: full/bin/3d
      bin: standard
  (2) pair meam/c, perpetual, half/full from (1)
      attributes: half, newton on
      pair build: halffull/newton
      stencil: none
      bin: none
Per MPI rank memory allocation (min/avg/max) = 8.692 | 8.692 | 8.692 Mbytes
TotEng Pxx Pyy Pzz Pxy Pxz Pyz 
  -775.11271   -105770.83   -105770.83   -105770.83    718.56405    718.56405    718.56405 
Loop time of 4.76837e-07 on 1 procs for 0 steps with 112 atoms

209.7% CPU use with 1 MPI tasks x 1 OpenMP threads

MPI task timing breakdown:
Section |  min time  |  avg time  |  max time  |%varavg| %total
---------------------------------------------------------------
Pair    | 0          | 0          | 0          |   0.0 |  0.00
Neigh   | 0          | 0          | 0          |   0.0 |  0.00
Comm    | 0          | 0          | 0          |   0.0 |  0.00
Output  | 0          | 0          | 0          |   0.0 |  0.00
Modify  | 0          | 0          | 0          |   0.0 |  0.00
Other   |            | 4.768e-07  |            |       |100.00

Nlocal:    112 ave 112 max 112 min
Histogram: 1 0 0 0 0 0 0 0 0 0
Nghost:    356 ave 356 max 356 min
Histogram: 1 0 0 0 0 0 0 0 0 0
Neighs:    1256 ave 1256 max 1256 min
Histogram: 1 0 0 0 0 0 0 0 0 0
FullNghs:  2512 ave 2512 max 2512 min
Histogram: 1 0 0 0 0 0 0 0 0 0

Total # of neighbors = 2512
Ave neighs/atom = 22.4286
Neighbor list builds = 0
Dangerous builds = 0
OMP_NUM_THREADS environment is not set. Defaulting to 1 thread. (../comm.cpp:95)
  using 1 OpenMP thread(s) per MPI task
  triclinic box = (0.0 0.0 0.0) to (12.346 12.346 12.346) with tilt (7.55949502214554e-16 7.55949502214554e-16 7.55949502214554e-16)
  1 by 1 by 1 MPI processor grid
  reading atoms ...
  120 atoms
  reading velocities ...
  120 velocities
  read_data CPU = 0.000 secs
Reading potential file ref.lib with DATE: 2012-06-29
  triclinic box = (0.0 0.0 0.0) to (12.346 12.346 12.346) with tilt (7.55949502214554e-16 7.55949502214554e-16 7.55949502214554e-16)
WARNING: No fixes defined, atoms won't move (../verlet.cpp:54)
Neighbor list info ...
  update every 1 steps, delay 10 steps, check yes
  max neighbors/atom: 5000, page size: 100000
  master list distance cutoff = 4.8
  ghost atom cutoff = 4.8
  binsize = 2.4, bins = 6 6 6
  2 neighbor lists, perpetual/occasional/extra = 2 0 0
  (1) pair meam/c, perpetual
      attributes: full, newton on
      pair build: full/bin/atomonly
      stencil: full/bin/3d
      bin: standard
  (2) pair meam/c, perpetual, half/full from (1)
      attributes: half, newton on
      pair build: halffull/newton
      stencil: none
      bin: none
Per MPI rank memory allocation (min/avg/max) = 8.779 | 8.779 | 8.779 Mbytes
TotEng Pxx Pyy Pzz Pxy Pxz Pyz 
  -718.07187   -14057.122   -14057.122   -14057.122 -4.5140304e-05 -4.5140286e-05 -4.5140249e-05 
Loop time of 4.76837e-07 on 1 procs for 0 steps with 120 atoms

209.7% CPU use with 1 MPI tasks x 1 OpenMP threads

MPI task timing breakdown:
Section |  min time  |  avg time  |  max time  |%varavg| %total
---------------------------------------------------------------
Pair    | 0          | 0          | 0          |   0.0 |  0.00
Neigh   | 0          | 0          | 0          |   0.0 |  0.00
Comm    | 0          | 0          | 0          |   0.0 |  0.00
Output  | 0          | 0          | 0          |   0.0 |  0.00
Modify  | 0          | 0          | 0          |   0.0 |  0.00
Other   |            | 4.768e-07  |            |       |100.00

Nlocal:    120 ave 120 max 120 min
Histogram: 1 0 0 0 0 0 0 0 0 0
Nghost:    671 ave 671 max 671 min
Histogram: 1 0 0 0 0 0 0 0 0 0
Neighs:    1456 ave 1456 max 1456 min
Histogram: 1 0 0 0 0 0 0 0 0 0
FullNghs:  2912 ave 2912 max 2912 min
Histogram: 1 0 0 0 0 0 0 0 0 0

Total # of neighbors = 2912
Ave neighs/atom = 24.2667
Neighbor list builds = 0
Dangerous builds = 0
OMP_NUM_THREADS environment is not set. Defaulting to 1 thread. (../comm.cpp:95)
  using 1 OpenMP thread(s) per MPI task
  triclinic box = (0.0 0.0 0.0) to (12.346 12.346 12.346) with tilt (7.55949502214554e-16 7.55949502214554e-16 7.55949502214554e-16)
  1 by 1 by 1 MPI processor grid
  reading atoms ...
  120 atoms
  reading velocities ...
  120 velocities
  read_data CPU = 0.000 secs
Reading potential file ref.lib with DATE: 2012-06-29
  triclinic box = (0.0 0.0 0.0) to (12.346 12.346 12.346) with tilt (7.55949502214554e-16 7.55949502214554e-16 7.55949502214554e-16)
WARNING: No fixes defined, atoms won't move (../verlet.cpp:54)
Neighbor list info ...
  update every 1 steps, delay 10 steps, check yes
  max neighbors/atom: 5000, page size: 100000
  master list distance cutoff = 4.8
  ghost atom cutoff = 4.8
  binsize = 2.4, bins = 6 6 6
  2 neighbor lists, perpetual/occasional/extra = 2 0 0
  (1) pair meam/c, perpetual
      attributes: full, newton on
      pair build: full/bin/atomonly
      stencil: full/bin/3d
      bin: standard
  (2) pair meam/c, perpetual, half/full from (1)
      attributes: half, newton on
      pair build: halffull/newton
      stencil: none
      bin: none
Per MPI rank memory allocation (min/avg/max) = 8.779 | 8.779 | 8.779 Mbytes
TotEng Pxx Pyy Pzz Pxy Pxz Pyz 
  -734.77501   -9104.3018   -9104.3018   -9104.3018 6.0452825e-05 6.0452845e-05 6.0452853e-05 
Loop time of 7.15256e-07 on 1 procs for 0 steps with 120 atoms

0.0% CPU use with 1 MPI tasks x 1 OpenMP threads

MPI task timing breakdown:
Section |  min time  |  avg time  |  max time  |%varavg| %total
---------------------------------------------------------------
Pair    | 0          | 0          | 0          |   0.0 |  0.00
Neigh   | 0          | 0          | 0          |   0.0 |  0.00
Comm    | 0          | 0          | 0          |   0.0 |  0.00
Output  | 0          | 0          | 0          |   0.0 |  0.00
Modify  | 0          | 0          | 0          |   0.0 |  0.00
Other   |            | 7.153e-07  |            |       |100.00

Nlocal:    120 ave 120 max 120 min
Histogram: 1 0 0 0 0 0 0 0 0 0
Nghost:    671 ave 671 max 671 min
Histogram: 1 0 0 0 0 0 0 0 0 0
Neighs:    1456 ave 1456 max 1456 min
Histogram: 1 0 0 0 0 0 0 0 0 0
FullNghs:  2912 ave 2912 max 2912 min
Histogram: 1 0 0 0 0 0 0 0 0 0

Total # of neighbors = 2912
Ave neighs/atom = 24.2667
Neighbor list builds = 0
Dangerous builds = 0
OMP_NUM_THREADS environment is not set. Defaulting to 1 thread. (../comm.cpp:95)
  using 1 OpenMP thread(s) per MPI task
  triclinic box = (0.0 0.0 0.0) to (12.346 12.346 12.346) with tilt (7.55949502214554e-16 7.55949502214554e-16 7.55949502214554e-16)
  1 by 1 by 1 MPI processor grid
  reading atoms ...
  112 atoms
  reading velocities ...
  112 velocities
  read_data CPU = 0.000 secs
Reading potential file ref.lib with DATE: 2012-06-29
  triclinic box = (0.0 0.0 0.0) to (12.346 12.346 12.346) with tilt (7.55949502214554e-16 7.55949502214554e-16 7.55949502214554e-16)
WARNING: No fixes defined, atoms won't move (../verlet.cpp:54)
Neighbor list info ...
  update every 1 steps, delay 10 steps, check yes
  max neighbors/atom: 5000, page size: 100000
  master list distance cutoff = 4.8
  ghost atom cutoff = 4.8
  binsize = 2.4, bins = 6 6 6
  2 neighbor lists, perpetual/occasional/extra = 2 0 0
  (1) pair meam/c, perpetual
      attributes: full, newton on
      pair build: full/bin/atomonly
      stencil: full/bin/3d
      bin: standard
  (2) pair meam/c, perpetual, half/full from (1)
      attributes: half, newton on
      pair build: halffull/newton
      stencil: none
      bin: none
Per MPI rank memory allocation (min/avg/max) = 8.76 | 8.76 | 8.76 Mbytes
TotEng Pxx Pyy Pzz Pxy Pxz Pyz 
  -652.50063   -47820.062   -47820.062   -47820.062    1270.8121    1270.8121    1270.8121 
Loop time of 4.76837e-07 on 1 procs for 0 steps with 112 atoms

209.7% CPU use with 1 MPI tasks x 1 OpenMP threads

MPI task timing breakdown:
Section |  min time  |  avg time  |  max time  |%varavg| %total
---------------------------------------------------------------
Pair    | 0          | 0          | 0          |   0.0 |  0.00
Neigh   | 0          | 0          | 0          |   0.0 |  0.00
Comm    | 0          | 0          | 0          |   0.0 |  0.00
Output  | 0          | 0          | 0          |   0.0 |  0.00
Modify  | 0          | 0          | 0          |   0.0 |  0.00
Other   |            | 4.768e-07  |            |       |100.00

Nlocal:    112 ave 112 max 112 min
Histogram: 1 0 0 0 0 0 0 0 0 0
Nghost:    615 ave 615 max 615 min
Histogram: 1 0 0 0 0 0 0 0 0 0
Neighs:    1256 ave 1256 max 1256 min
Histogram: 1 0 0 0 0 0 0 0 0 0
FullNghs:  2512 ave 2512 max 2512 min
Histogram: 1 0 0 0 0 0 0 0 0 0

Total # of neighbors = 2512
Ave neighs/atom = 22.4286
Neighbor list builds = 0
Dangerous builds = 0
OMP_NUM_THREADS environment is not set. Defaulting to 1 thread. (../comm.cpp:95)
  using 1 OpenMP thread(s) per MPI task
  triclinic box = (0.0 0.0 0.0) to (13.1118 13.1118 13.1118) with tilt (8.02839679502412e-16 8.02839679502412e-16 8.02839679502412e-16)
  1 by 1 by 1 MPI processor grid
  reading atoms ...
  120 atoms
  reading velocities ...
  120 velocities
  read_data CPU = 0.000 secs
Reading potential file ref.lib with DATE: 2012-06-29
  triclinic box = (0.0 0.0 0.0) to (13.1118 13.1118 13.1118) with tilt (8.02839679502412e-16 8.02839679502412e-16 8.02839679502412e-16)
WARNING: No fixes defined, atoms won't move (../verlet.cpp:54)
Neighbor list info ...
  update every 1 steps, delay 10 steps, check yes
  max neighbors/atom: 5000, page size: 100000
  master list distance cutoff = 4.8
  ghost atom cutoff = 4.8
  binsize = 2.4, bins = 6 6 6
  2 neighbor lists, perpetual/occasional/extra = 2 0 0
  (1) pair meam/c, perpetual
      attributes: full, newton on
      pair build: full/bin/atomonly
      stencil: full/bin/3d
      bin: standard
  (2) pair meam/c, perpetual, half/full from (1)
      attributes: half, newton on
      pair build: halffull/newton
      stencil: none
      bin: none
Per MPI rank memory allocation (min/avg/max) = 8.711 | 8.711 | 8.711 Mbytes
TotEng Pxx Pyy Pzz Pxy Pxz Pyz 
  -926.96497   -35184.023   -35184.023   -35184.023 1.1488568e-06 1.1488383e-06 1.1487891e-06 
Loop time of 4.76837e-07 on 1 procs for 0 steps with 120 atoms

209.7% CPU use with 1 MPI tasks x 1 OpenMP threads

MPI task timing breakdown:
Section |  min time  |  avg time  |  max time  |%varavg| %total
---------------------------------------------------------------
Pair    | 0          | 0          | 0          |   0.0 |  0.00
Neigh   | 0          | 0          | 0          |   0.0 |  0.00
Comm    | 0          | 0          | 0          |   0.0 |  0.00
Output  | 0          | 0          | 0          |   0.0 |  0.00
Modify  | 0          | 0          | 0          |   0.0 |  0.00
Other   |            | 4.768e-07  |            |       |100.00

Nlocal:    120 ave 120 max 120 min
Histogram: 1 0 0 0 0 0 0 0 0 0
Nghost:    412 ave 412 max 412 min
Histogram: 1 0 0 0 0 0 0 0 0 0
Neighs:    1456 ave 1456 max 1456 min
Histogram: 1 0 0 0 0 0 0 0 0 0
FullNghs:  2912 ave 2912 max 2912 min
Histogram: 1 0 0 0 0 0 0 0 0 0

Total # of neighbors = 2912
Ave neighs/atom = 24.2667
Neighbor list builds = 0
Dangerous builds = 0
OMP_NUM_THREADS environment is not set. Defaulting to 1 thread. (../comm.cpp:95)
  using 1 OpenMP thread(s) per MPI task
  triclinic box = (0.0 0.0 0.0) to (13.1118 13.1118 13.1118) with tilt (8.02839679502412e-16 8.02839679502412e-16 8.02839679502412e-16)
  1 by 1 by 1 MPI processor grid
  reading atoms ...
  120 atoms
  reading velocities ...
  120 velocities
  read_data CPU = 0.000 secs
Reading potential file ref.lib with DATE: 2012-06-29
  triclinic box = (0.0 0.0 0.0) to (13.1118 13.1118 13.1118) with tilt (8.02839679502412e-16 8.02839679502412e-16 8.02839679502412e-16)
WARNING: No fixes defined, atoms won't move (../verlet.cpp:54)
Neighbor list info ...
  update every 1 steps, delay 10 steps, check yes
  max neighbors/atom: 5000, page size: 100000
  master list distance cutoff = 4.8
  ghost atom cutoff = 4.8
  binsize = 2.4, bins = 6 6 6
  2 neighbor lists, perpetual/occasional/extra = 2 0 0
  (1) pair meam/c, perpetual
      attributes: full, newton on
      pair build: full/bin/atomonly
      stencil: full/bin/3d
      bin: standard
  (2) pair meam/c, perpetual, half/full from (1)
      attributes: half, newton on
      pair build: halffull/newton
      stencil: none
      bin: none
Per MPI rank memory allocation (min/avg/max) = 8.697 | 8.697 | 8.697 Mbytes
TotEng Pxx Pyy Pzz Pxy Pxz Pyz 
   -932.6314   -47253.579   -47253.579   -47253.579 6.1591746e-06 6.1591472e-06 6.1591592e-06 
Loop time of 4.76837e-07 on 1 procs for 0 steps with 120 atoms

209.7% CPU use with 1 MPI tasks x 1 OpenMP threads

MPI task timing breakdown:
Section |  min time  |  avg time  |  max time  |%varavg| %total
---------------------------------------------------------------
Pair    | 0          | 0          | 0          |   0.0 |  0.00
Neigh   | 0          | 0          | 0          |   0.0 |  0.00
Comm    | 0          | 0          | 0          |   0.0 |  0.00
Output  | 0          | 0          | 0          |   0.0 |  0.00
Modify  | 0          | 0          | 0          |   0.0 |  0.00
Other   |            | 4.768e-07  |            |       |100.00

Nlocal:    120 ave 120 max 120 min
Histogram: 1 0 0 0 0 0 0 0 0 0
Nghost:    375 ave 375 max 375 min
Histogram: 1 0 0 0 0 0 0 0 0 0
Neighs:    1456 ave 1456 max 1456 min
Histogram: 1 0 0 0 0 0 0 0 0 0
FullNghs:  2912 ave 2912 max 2912 min
Histogram: 1 0 0 0 0 0 0 0 0 0

Total # of neighbors = 2912
Ave neighs/atom = 24.2667
Neighbor list builds = 0
Dangerous builds = 0
OMP_NUM_THREADS environment is not set. Defaulting to 1 thread. (../comm.cpp:95)
  using 1 OpenMP thread(s) per MPI task
  triclinic box = (0.0 0.0 0.0) to (13.1118 13.1118 13.1118) with tilt (8.02839679502412e-16 8.02839679502412e-16 8.02839679502412e-16)
  1 by 1 by 1 MPI processor grid
  reading atoms ...
  112 atoms
  reading velocities ...
  112 velocities
  read_data CPU = 0.000 secs
Reading potential file ref.lib with DATE: 2012-06-29
  triclinic box = (0.0 0.0 0.0) to (13.1118 13.1118 13.1118) with tilt (8.02839679502412e-16 8.02839679502412e-16 8.02839679502412e-16)
WARNING: No fixes defined, atoms won't move (../verlet.cpp:54)
Neighbor list info ...
  update every 1 steps, delay 10 steps, check yes
  max neighbors/atom: 5000, page size: 100000
  master list distance cutoff = 4.8
  ghost atom cutoff = 4.8
  binsize = 2.4, bins = 6 6 6
  2 neighbor lists, perpetual/occasional/extra = 2 0 0
  (1) pair meam/c, perpetual
      attributes: full, newton on
      pair build: full/bin/atomonly
      stencil: full/bin/3d
      bin: standard
  (2) pair meam/c, perpetual, half/full from (1)
      attributes: half, newton on
      pair build: halffull/newton
      stencil: none
      bin: none
Per MPI rank memory allocation (min/avg/max) = 8.692 | 8.692 | 8.692 Mbytes
TotEng Pxx Pyy Pzz Pxy Pxz Pyz 
  -835.44876   -70138.371   -70138.371   -70138.371    1439.6326    1439.6326    1439.6326 
Loop time of 4.76837e-07 on 1 procs for 0 steps with 112 atoms

209.7% CPU use with 1 MPI tasks x 1 OpenMP threads

MPI task timing breakdown:
Section |  min time  |  avg time  |  max time  |%varavg| %total
---------------------------------------------------------------
Pair    | 0          | 0          | 0          |   0.0 |  0.00
Neigh   | 0          | 0          | 0          |   0.0 |  0.00
Comm    | 0          | 0          | 0          |   0.0 |  0.00
Output  | 0          | 0          | 0          |   0.0 |  0.00
Modify  | 0          | 0          | 0          |   0.0 |  0.00
Other   |            | 4.768e-07  |            |       |100.00

Nlocal:    112 ave 112 max 112 min
Histogram: 1 0 0 0 0 0 0 0 0 0
Nghost:    356 ave 356 max 356 min
Histogram: 1 0 0 0 0 0 0 0 0 0
Neighs:    1256 ave 1256 max 1256 min
Histogram: 1 0 0 0 0 0 0 0 0 0
FullNghs:  2512 ave 2512 max 2512 min
Histogram: 1 0 0 0 0 0 0 0 0 0

Total # of neighbors = 2512
Ave neighs/atom = 22.4286
Neighbor list builds = 0
Dangerous builds = 0
OMP_NUM_THREADS environment is not set. Defaulting to 1 thread. (../comm.cpp:95)
  using 1 OpenMP thread(s) per MPI task
  triclinic box = (0.0 0.0 0.0) to (12.3928 12.3928 12.3928) with tilt (7.58815081082498e-16 7.58815081082498e-16 7.58815081082498e-16)
  1 by 1 by 1 MPI processor grid
  reading atoms ...
  120 atoms
  reading velocities ...
  120 velocities
  read_data CPU = 0.000 secs
Reading potential file ref.lib with DATE: 2012-06-29
  triclinic box = (0.0 0.0 0.0) to (12.3928 12.3928 12.3928) with tilt (7.58815081082498e-16 7.58815081082498e-16 7.58815081082498e-16)
WARNING: No fixes defined, atoms won't move (../verlet.cpp:54)
Neighbor list info ...
  update every 1 steps, delay 10 steps, check yes
  max neighbors/atom: 5000, page size: 100000
  master list distance cutoff = 4.8
  ghost atom cutoff = 4.8
  binsize = 2.4, bins = 6 6 6
  2 neighbor lists, perpetual/occasional/extra = 2 0 0
  (1) pair meam/c, perpetual
      attributes: full, newton on
      pair build: full/bin/atomonly
      stencil: full/bin/3d
      bin: standard
  (2) pair meam/c, perpetual, half/full from (1)
      attributes: half, newton on
      pair build: halffull/newton
      stencil: none
      bin: none
Per MPI rank memory allocation (min/avg/max) = 8.779 | 8.779 | 8.779 Mbytes
TotEng Pxx Pyy Pzz Pxy Pxz Pyz 
  -777.30035   -74273.829   -74273.829   -74273.829 -5.8315796e-05 -5.831582e-05 -5.831582e-05 
Loop time of 4.76837e-07 on 1 procs for 0 steps with 120 atoms

209.7% CPU use with 1 MPI tasks x 1 OpenMP threads

MPI task timing breakdown:
Section |  min time  |  avg time  |  max time  |%varavg| %total
---------------------------------------------------------------
Pair    | 0          | 0          | 0          |   0.0 |  0.00
Neigh   | 0          | 0          | 0          |   0.0 |  0.00
Comm    | 0          | 0          | 0          |   0.0 |  0.00
Output  | 0          | 0          | 0          |   0.0 |  0.00
Modify  | 0          | 0          | 0          |   0.0 |  0.00
Other   |            | 4.768e-07  |            |       |100.00

Nlocal:    120 ave 120 max 120 min
Histogram: 1 0 0 0 0 0 0 0 0 0
Nghost:    671 ave 671 max 671 min
Histogram: 1 0 0 0 0 0 0 0 0 0
Neighs:    1456 ave 1456 max 1456 min
Histogram: 1 0 0 0 0 0 0 0 0 0
FullNghs:  2912 ave 2912 max 2912 min
Histogram: 1 0 0 0 0 0 0 0 0 0

Total # of neighbors = 2912
Ave neighs/atom = 24.2667
Neighbor list builds = 0
Dangerous builds = 0
OMP_NUM_THREADS environment is not set. Defaulting to 1 thread. (../comm.cpp:95)
  using 1 OpenMP thread(s) per MPI task
  triclinic box = (0.0 0.0 0.0) to (12.3928 12.3928 12.3928) with tilt (7.58815081082498e-16 7.58815081082498e-16 7.58815081082498e-16)
  1 by 1 by 1 MPI processor grid
  reading atoms ...
  120 atoms
  reading velocities ...
  120 velocities
  read_data CPU = 0.000 secs
Reading potential file ref.lib with DATE: 2012-06-29
  triclinic box = (0.0 0.0 0.0) to (12.3928 12.3928 12.3928) with tilt (7.58815081082498e-16 7.58815081082498e-16 7.58815081082498e-16)
WARNING: No fixes defined, atoms won't move (../verlet.cpp:54)
Neighbor list info ...
  update every 1 steps, delay 10 steps, check yes
  max neighbors/atom: 5000, page size: 100000
  master list distance cutoff = 4.8
  ghost atom cutoff = 4.8
  binsize = 2.4, bins = 6 6 6
  2 neighbor lists, perpetual/occasional/extra = 2 0 0
  (1) pair meam/c, perpetual
      attributes: full, newton on
      pair build: full/bin/atomonly
      stencil: full/bin/3d
      bin: standard
  (2) pair meam/c, perpetual, half/full from (1)
      attributes: half, newton on
      pair build: halffull/newton
      stencil: none
      bin: none
Per MPI rank memory allocation (min/avg/max) = 8.779 | 8.779 | 8.779 Mbytes
TotEng Pxx Pyy Pzz Pxy Pxz Pyz 
  -808.39047   -79762.025   -79762.025   -79762.025 1.656335e-05 1.6563351e-05 1.6563311e-05 
Loop time of 7.15256e-07 on 1 procs for 0 steps with 120 atoms

139.8% CPU use with 1 MPI tasks x 1 OpenMP threads

MPI task timing breakdown:
Section |  min time  |  avg time  |  max time  |%varavg| %total
---------------------------------------------------------------
Pair    | 0          | 0          | 0          |   0.0 |  0.00
Neigh   | 0          | 0          | 0          |   0.0 |  0.00
Comm    | 0          | 0          | 0          |   0.0 |  0.00
Output  | 0          | 0          | 0          |   0.0 |  0.00
Modify  | 0          | 0          | 0          |   0.0 |  0.00
Other   |            | 7.153e-07  |            |       |100.00

Nlocal:    120 ave 120 max 120 min
Histogram: 1 0 0 0 0 0 0 0 0 0
Nghost:    671 ave 671 max 671 min
Histogram: 1 0 0 0 0 0 0 0 0 0
Neighs:    1456 ave 1456 max 1456 min
Histogram: 1 0 0 0 0 0 0 0 0 0
FullNghs:  2912 ave 2912 max 2912 min
Histogram: 1 0 0 0 0 0 0 0 0 0

Total # of neighbors = 2912
Ave neighs/atom = 24.2667
Neighbor list builds = 0
Dangerous builds = 0
OMP_NUM_THREADS environment is not set. Defaulting to 1 thread. (../comm.cpp:95)
  using 1 OpenMP thread(s) per MPI task
  triclinic box = (0.0 0.0 0.0) to (12.3928 12.3928 12.3928) with tilt (7.58815081082498e-16 7.58815081082498e-16 7.58815081082498e-16)
  1 by 1 by 1 MPI processor grid
  reading atoms ...
  112 atoms
  reading velocities ...
  112 velocities
  read_data CPU = 0.000 secs
Reading potential file ref.lib with DATE: 2012-06-29
  triclinic box = (0.0 0.0 0.0) to (12.3928 12.3928 12.3928) with tilt (7.58815081082498e-16 7.58815081082498e-16 7.58815081082498e-16)
WARNING: No fixes defined, atoms won't move (../verlet.cpp:54)
Neighbor list info ...
  update every 1 steps, delay 10 steps, check yes
  max neighbors/atom: 5000, page size: 100000
  master list distance cutoff = 4.8
  ghost atom cutoff = 4.8
  binsize = 2.4, bins = 6 6 6
  2 neighbor lists, perpetual/occasional/extra = 2 0 0
  (1) pair meam/c, perpetual
      attributes: full, newton on
      pair build: full/bin/atomonly
      stencil: full/bin/3d
      bin: standard
  (2) pair meam/c, perpetual, half/full from (1)
      attributes: half, newton on
      pair build: halffull/newton
      stencil: none
      bin: none
Per MPI rank memory allocation (min/avg/max) = 8.76 | 8.76 | 8.76 Mbytes
TotEng Pxx Pyy Pzz Pxy Pxz Pyz 
  -713.67381   -107676.86   -107676.86   -107676.86    174.64933    174.64933    174.64933 
Loop time of 4.76837e-07 on 1 procs for 0 steps with 112 atoms

209.7% CPU use with 1 MPI tasks x 1 OpenMP threads

MPI task timing breakdown:
Section |  min time  |  avg time  |  max time  |%varavg| %total
---------------------------------------------------------------
Pair    | 0          | 0          | 0          |   0.0 |  0.00
Neigh   | 0          | 0          | 0          |   0.0 |  0.00
Comm    | 0          | 0          | 0          |   0.0 |  0.00
Output  | 0          | 0          | 0          |   0.0 |  0.00
Modify  | 0          | 0          | 0          |   0.0 |  0.00
Other   |            | 4.768e-07  |            |       |100.00

Nlocal:    112 ave 112 max 112 min
Histogram: 1 0 0 0 0 0 0 0 0 0
Nghost:    615 ave 615 max 615 min
Histogram: 1 0 0 0 0 0 0 0 0 0
Neighs:    1256 ave 1256 max 1256 min
Histogram: 1 0 0 0 0 0 0 0 0 0
FullNghs:  2512 ave 2512 max 2512 min
Histogram: 1 0 0 0 0 0 0 0 0 0

Total # of neighbors = 2512
Ave neighs/atom = 22.4286
Neighbor list builds = 0
Dangerous builds = 0
OMP_NUM_THREADS environment is not set. Defaulting to 1 thread. (../comm.cpp:95)
  using 1 OpenMP thread(s) per MPI task
  triclinic box = (0.0 0.0 0.0) to (12.8478 12.8478 12.8478) with tilt (7.86674875631956e-16 7.86674875631956e-16 7.86674875631956e-16)
  1 by 1 by 1 MPI processor grid
  reading atoms ...
  120 atoms
  reading velocities ...
  120 velocities
  read_data CPU = 0.000 secs
Reading potential file ref.lib with DATE: 2012-06-29
  triclinic box = (0.0 0.0 0.0) to (12.8478 12.8478 12.8478) with tilt (7.86674875631956e-16 7.86674875631956e-16 7.86674875631956e-16)
WARNING: No fixes defined, atoms won't move (../verlet.cpp:54)
Neighbor list info ...
  update every 1 steps, delay 10 steps, check yes
  max neighbors/atom: 5000, page size: 100000
  master list distance cutoff = 4.8
  ghost atom cutoff = 4.8
  binsize = 2.4, bins = 6 6 6
  2 neighbor lists, perpetual/occasional/extra = 2 0 0
  (1) pair meam/c, perpetual
      attributes: full, newton on
      pair build: full/bin/atomonly
      stencil: full/bin/3d
      bin: standard
  (2) pair meam/c, perpetual, half/full from (1)
      attributes: half, newton on
      pair build: halffull/newton
      stencil: none
      bin: none
Per MPI rank memory allocation (min/avg/max) = 8.711 | 8.711 | 8.711 Mbytes
TotEng Pxx Pyy Pzz Pxy Pxz Pyz 
  -756.41655   -33738.443   -33738.443   -33738.443 8.8337119e-06 8.8337245e-06 8.8336957e-06 
Loop time of 4.76837e-07 on 1 procs for 0 steps with 120 atoms

209.7% CPU use with 1 MPI tasks x 1 OpenMP threads

MPI task timing breakdown:
Section |  min time  |  avg time  |  max time  |%varavg| %total
---------------------------------------------------------------
Pair    | 0          | 0          | 0          |   0.0 |  0.00
Neigh   | 0          | 0          | 0          |   0.0 |  0.00
Comm    | 0          | 0          | 0          |   0.0 |  0.00
Output  | 0          | 0          | 0          |   0.0 |  0.00
Modify  | 0          | 0          | 0          |   0.0 |  0.00
Other   |            | 4.768e-07  |            |       |100.00

Nlocal:    120 ave 120 max 120 min
Histogram: 1 0 0 0 0 0 0 0 0 0
Nghost:    412 ave 412 max 412 min
Histogram: 1 0 0 0 0 0 0 0 0 0
Neighs:    1456 ave 1456 max 1456 min
Histogram: 1 0 0 0 0 0 0 0 0 0
FullNghs:  2912 ave 2912 max 2912 min
Histogram: 1 0 0 0 0 0 0 0 0 0

Total # of neighbors = 2912
Ave neighs/atom = 24.2667
Neighbor list builds = 0
Dangerous builds = 0
OMP_NUM_THREADS environment is not set. Defaulting to 1 thread. (../comm.cpp:95)
  using 1 OpenMP thread(s) per MPI task
  triclinic box = (0.0 0.0 0.0) to (12.8478 12.8478 12.8478) with tilt (7.86674875631956e-16 7.86674875631956e-16 7.86674875631956e-16)
  1 by 1 by 1 MPI processor grid
  reading atoms ...
  120 atoms
  reading velocities ...
  120 velocities
  read_data CPU = 0.000 secs
Reading potential file ref.lib with DATE: 2012-06-29
  triclinic box = (0.0 0.0 0.0) to (12.8478 12.8478 12.8478) with tilt (7.86674875631956e-16 7.86674875631956e-16 7.86674875631956e-16)
WARNING: No fixes defined, atoms won't move (../verlet.cpp:54)
Neighbor list info ...
  update every 1 steps, delay 10 steps, check yes
  max neighbors/atom: 5000, page size: 100000
  master list distance cutoff = 4.8
  ghost atom cutoff = 4.8
  binsize = 2.4, bins = 6 6 6
  2 neighbor lists, perpetual/occasional/extra = 2 0 0
  (1) pair meam/c, perpetual
      attributes: full, newton on
      pair build: full/bin/atomonly
      stencil: full/bin/3d
      bin: standard
  (2) pair meam/c, perpetual, half/full from (1)
      attributes: half, newton on
      pair build: halffull/newton
      stencil: none
      bin: none
Per MPI rank memory allocation (min/avg/max) = 8.697 | 8.697 | 8.697 Mbytes
TotEng Pxx Pyy Pzz Pxy Pxz Pyz 
  -781.90819    -32917.79    -32917.79    -32917.79 2.4443411e-05 2.4443449e-05 2.4443465e-05 
Loop time of 4.76837e-07 on 1 procs for 0 steps with 120 atoms

0.0% CPU use with 1 MPI tasks x 1 OpenMP threads

MPI task timing breakdown:
Section |  min time  |  avg time  |  max time  |%varavg| %total
---------------------------------------------------------------
Pair    | 0          | 0          | 0          |   0.0 |  0.00
Neigh   | 0          | 0          | 0          |   0.0 |  0.00
Comm    | 0          | 0          | 0          |   0.0 |  0.00
Output  | 0          | 0          | 0          |   0.0 |  0.00
Modify  | 0          | 0          | 0          |   0.0 |  0.00
Other   |            | 4.768e-07  |            |       |100.00

Nlocal:    120 ave 120 max 120 min
Histogram: 1 0 0 0 0 0 0 0 0 0
Nghost:    375 ave 375 max 375 min
Histogram: 1 0 0 0 0 0 0 0 0 0
Neighs:    1456 ave 1456 max 1456 min
Histogram: 1 0 0 0 0 0 0 0 0 0
FullNghs:  2912 ave 2912 max 2912 min
Histogram: 1 0 0 0 0 0 0 0 0 0

Total # of neighbors = 2912
Ave neighs/atom = 24.2667
Neighbor list builds = 0
Dangerous builds = 0
OMP_NUM_THREADS environment is not set. Defaulting to 1 thread. (../comm.cpp:95)
  using 1 OpenMP thread(s) per MPI task
  triclinic box = (0.0 0.0 0.0) to (12.8478 12.8478 12.8478) with tilt (7.86674875631956e-16 7.86674875631956e-16 7.86674875631956e-16)
  1 by 1 by 1 MPI processor grid
  reading atoms ...
  112 atoms
  reading velocities ...
  112 velocities
  read_data CPU = 0.000 secs
Reading potential file ref.lib with DATE: 2012-06-29
  triclinic box = (0.0 0.0 0.0) to (12.8478 12.8478 12.8478) with tilt (7.86674875631956e-16 7.86674875631956e-16 7.86674875631956e-16)
WARNING: No fixes defined, atoms won't move (../verlet.cpp:54)
Neighbor list info ...
  update every 1 steps, delay 10 steps, check yes
  max neighbors/atom: 5000, page size: 100000
  master list distance cutoff = 4.8
  ghost atom cutoff = 4.8
  binsize = 2.4, bins = 6 6 6
  2 neighbor lists, perpetual/occasional/extra = 2 0 0
  (1) pair meam/c, perpetual
      attributes: full, newton on
      pair build: full/bin/atomonly
      stencil: full/bin/3d
      bin: standard
  (2) pair meam/c, perpetual, half/full from (1)
      attributes: half, newton on
      pair build: halffull/newton
      stencil: none
      bin: none
Per MPI rank memory allocation (min/avg/max) = 8.692 | 8.692 | 8.692 Mbytes
TotEng Pxx Pyy Pzz Pxy Pxz Pyz 
  -693.14284   -58630.751   -58630.751   -58630.751     310.0213     310.0213     310.0213 
Loop time of 4.76837e-07 on 1 procs for 0 steps with 112 atoms

209.7% CPU use with 1 MPI tasks x 1 OpenMP threads

MPI task timing breakdown:
Section |  min time  |  avg time  |  max time  |%varavg| %total
---------------------------------------------------------------
Pair    | 0          | 0          | 0          |   0.0 |  0.00
Neigh   | 0          | 0          | 0          |   0.0 |  0.00
Comm    | 0          | 0          | 0          |   0.0 |  0.00
Output  | 0          | 0          | 0          |   0.0 |  0.00
Modify  | 0          | 0          | 0          |   0.0 |  0.00
Other   |            | 4.768e-07  |            |       |100.00

Nlocal:    112 ave 112 max 112 min
Histogram: 1 0 0 0 0 0 0 0 0 0
Nghost:    356 ave 356 max 356 min
Histogram: 1 0 0 0 0 0 0 0 0 0
Neighs:    1256 ave 1256 max 1256 min
Histogram: 1 0 0 0 0 0 0 0 0 0
FullNghs:  2512 ave 2512 max 2512 min
Histogram: 1 0 0 0 0 0 0 0 0 0

Total # of neighbors = 2512
Ave neighs/atom = 22.4286
Neighbor list builds = 0
Dangerous builds = 0
OMP_NUM_THREADS environment is not set. Defaulting to 1 thread. (../comm.cpp:95)
  using 1 OpenMP thread(s) per MPI task
  triclinic box = (0.0 0.0 0.0) to (9.720600000000001 9.720600000000001 26.3408) with tilt (5.95195426148289e-16 1.61285555223822e-15 1.61285555223822e-15)
  1 by 1 by 1 MPI processor grid
  reading atoms ...
  72 atoms
  reading velocities ...
  72 velocities
  read_data CPU = 0.000 secs
Reading potential file ref.lib with DATE: 2012-06-29
  triclinic box = (0.0 0.0 0.0) to (9.720600000000001 9.720600000000001 26.3408) with tilt (5.95195426148289e-16 1.61285555223822e-15 1.61285555223822e-15)
WARNING: No fixes defined, atoms won't move (../verlet.cpp:54)
Neighbor list info ...
  update every 1 steps, delay 10 steps, check yes
  max neighbors/atom: 5000, page size: 100000
  master list distance cutoff = 4.8
  ghost atom cutoff = 4.8
  binsize = 2.4, bins = 5 5 11
  2 neighbor lists, perpetual/occasional/extra = 2 0 0
  (1) pair meam/c, perpetual
      attributes: full, newton on
      pair build: full/bin/atomonly
      stencil: full/bin/3d
      bin: standard
  (2) pair meam/c, perpetual, half/full from (1)
      attributes: half, newton on
      pair build: halffull/newton
      stencil: none
      bin: none
Per MPI rank memory allocation (min/avg/max) = 8.653 | 8.653 | 8.653 Mbytes
TotEng Pxx Pyy Pzz Pxy Pxz Pyz 
  -481.29382    -37795.08    -37795.08   -18052.536 2.1778576e-05  0.057998513  0.057998513 
Loop time of 7.15256e-07 on 1 procs for 0 steps with 72 atoms

139.8% CPU use with 1 MPI tasks x 1 OpenMP threads

MPI task timing breakdown:
Section |  min time  |  avg time  |  max time  |%varavg| %total
---------------------------------------------------------------
Pair    | 0          | 0          | 0          |   0.0 |  0.00
Neigh   | 0          | 0          | 0          |   0.0 |  0.00
Comm    | 0          | 0          | 0          |   0.0 |  0.00
Output  | 0          | 0          | 0          |   0.0 |  0.00
Modify  | 0          | 0          | 0          |   0.0 |  0.00
Other   |            | 7.153e-07  |            |       |100.00

Nlocal:    72 ave 72 max 72 min
Histogram: 1 0 0 0 0 0 0 0 0 0
Nghost:    258 ave 258 max 258 min
Histogram: 1 0 0 0 0 0 0 0 0 0
Neighs:    810 ave 810 max 810 min
Histogram: 1 0 0 0 0 0 0 0 0 0
FullNghs:  1620 ave 1620 max 1620 min
Histogram: 1 0 0 0 0 0 0 0 0 0

Total # of neighbors = 1620
Ave neighs/atom = 22.5
Neighbor list builds = 0
Dangerous builds = 0
OMP_NUM_THREADS environment is not set. Defaulting to 1 thread. (../comm.cpp:95)
  using 1 OpenMP thread(s) per MPI task
  triclinic box = (0.0 0.0 0.0) to (9.720600000000001 9.720600000000001 26.3408) with tilt (5.95195426148289e-16 1.61285555223822e-15 1.61285555223822e-15)
  1 by 1 by 1 MPI processor grid
  reading atoms ...
  72 atoms
  reading velocities ...
  72 velocities
  read_data CPU = 0.000 secs
Reading potential file ref.lib with DATE: 2012-06-29
  triclinic box = (0.0 0.0 0.0) to (9.720600000000001 9.720600000000001 26.3408) with tilt (5.95195426148289e-16 1.61285555223822e-15 1.61285555223822e-15)
WARNING: No fixes defined, atoms won't move (../verlet.cpp:54)
Neighbor list info ...
  update every 1 steps, delay 10 steps, check yes
  max neighbors/atom: 5000, page size: 100000
  master list distance cutoff = 4.8
  ghost atom cutoff = 4.8
  binsize = 2.4, bins = 5 5 11
  2 neighbor lists, perpetual/occasional/extra = 2 0 0
  (1) pair meam/c, perpetual
      attributes: full, newton on
      pair build: full/bin/atomonly
      stencil: full/bin/3d
      bin: standard
  (2) pair meam/c, perpetual, half/full from (1)
      attributes: half, newton on
      pair build: halffull/newton
      stencil: none
      bin: none
Per MPI rank memory allocation (min/avg/max) = 8.653 | 8.653 | 8.653 Mbytes
TotEng Pxx Pyy Pzz Pxy Pxz Pyz 
  -479.96339   -35997.986   -37865.837   -16665.661  -0.13699408    -9043.101  0.070771328 
Loop time of 7.15256e-07 on 1 procs for 0 steps with 72 atoms

279.6% CPU use with 1 MPI tasks x 1 OpenMP threads

MPI task timing breakdown:
Section |  min time  |  avg time  |  max time  |%varavg| %total
---------------------------------------------------------------
Pair    | 0          | 0          | 0          |   0.0 |  0.00
Neigh   | 0          | 0          | 0          |   0.0 |  0.00
Comm    | 0          | 0          | 0          |   0.0 |  0.00
Output  | 0          | 0          | 0          |   0.0 |  0.00
Modify  | 0          | 0          | 0          |   0.0 |  0.00
Other   |            | 7.153e-07  |            |       |100.00

Nlocal:    72 ave 72 max 72 min
Histogram: 1 0 0 0 0 0 0 0 0 0
Nghost:    268 ave 268 max 268 min
Histogram: 1 0 0 0 0 0 0 0 0 0
Neighs:    792 ave 792 max 792 min
Histogram: 1 0 0 0 0 0 0 0 0 0
FullNghs:  1584 ave 1584 max 1584 min
Histogram: 1 0 0 0 0 0 0 0 0 0

Total # of neighbors = 1584
Ave neighs/atom = 22
Neighbor list builds = 0
Dangerous builds = 0
OMP_NUM_THREADS environment is not set. Defaulting to 1 thread. (../comm.cpp:95)
  using 1 OpenMP thread(s) per MPI task
  triclinic box = (0.0 0.0 0.0) to (9.720600000000001 9.720600000000001 26.3408) with tilt (5.95195426148289e-16 1.61285555223822e-15 1.61285555223822e-15)
  1 by 1 by 1 MPI processor grid
  reading atoms ...
  72 atoms
  reading velocities ...
  72 velocities
  read_data CPU = 0.000 secs
Reading potential file ref.lib with DATE: 2012-06-29
  triclinic box = (0.0 0.0 0.0) to (9.720600000000001 9.720600000000001 26.3408) with tilt (5.95195426148289e-16 1.61285555223822e-15 1.61285555223822e-15)
WARNING: No fixes defined, atoms won't move (../verlet.cpp:54)
Neighbor list info ...
  update every 1 steps, delay 10 steps, check yes
  max neighbors/atom: 5000, page size: 100000
  master list distance cutoff = 4.8
  ghost atom cutoff = 4.8
  binsize = 2.4, bins = 5 5 11
  2 neighbor lists, perpetual/occasional/extra = 2 0 0
  (1) pair meam/c, perpetual
      attributes: full, newton on
      pair build: full/bin/atomonly
      stencil: full/bin/3d
      bin: standard
  (2) pair meam/c, perpetual, half/full from (1)
      attributes: half, newton on
      pair build: halffull/newton
      stencil: none
      bin: none
Per MPI rank memory allocation (min/avg/max) = 8.653 | 8.653 | 8.653 Mbytes
TotEng Pxx Pyy Pzz Pxy Pxz Pyz 
  -475.49433   -34594.337   -33188.496   -11529.201  -0.34843082   -19225.335  0.052288316 
Loop time of 1.19209e-06 on 1 procs for 0 steps with 72 atoms

83.9% CPU use with 1 MPI tasks x 1 OpenMP threads

MPI task timing breakdown:
Section |  min time  |  avg time  |  max time  |%varavg| %total
---------------------------------------------------------------
Pair    | 0          | 0          | 0          |   0.0 |  0.00
[...]

MPI task timing breakdown:
Section |  min time  |  avg time  |  max time  |%varavg| %total
---------------------------------------------------------------
Pair    | 0          | 0          | 0          |   0.0 |  0.00
Neigh   | 0          | 0          | 0          |   0.0 |  0.00
Comm    | 0          | 0          | 0          |   0.0 |  0.00
Output  | 0          | 0          | 0          |   0.0 |  0.00
Modify  | 0          | 0          | 0          |   0.0 |  0.00
Other   |            | 4.768e-07  |            |       |100.00

Nlocal:    26 ave 26 max 26 min
Histogram: 1 0 0 0 0 0 0 0 0 0
Nghost:    306 ave 306 max 306 min
Histogram: 1 0 0 0 0 0 0 0 0 0
Neighs:    302 ave 302 max 302 min
Histogram: 1 0 0 0 0 0 0 0 0 0
FullNghs:  604 ave 604 max 604 min
Histogram: 1 0 0 0 0 0 0 0 0 0

Total # of neighbors = 604
Ave neighs/atom = 23.2308
Neighbor list builds = 0
Dangerous builds = 0
OMP_NUM_THREADS environment is not set. Defaulting to 1 thread. (../comm.cpp:95)
  using 1 OpenMP thread(s) per MPI task
  triclinic box = (0.0 0.0 0.0) to (4.5424 5.5633 25.7353) with tilt (3.40642626411002e-16 1.57578059487625e-15 1.57578059487625e-15)
  1 by 1 by 1 MPI processor grid
  reading atoms ...
  26 atoms
  read_data CPU = 0.001 secs
Reading potential file ref.lib with DATE: 2012-06-29
  triclinic box = (0.0 0.0 0.0) to (4.5424 5.5633 25.7353) with tilt (3.40642626411002e-16 1.57578059487625e-15 1.57578059487625e-15)
WARNING: No fixes defined, atoms won't move (../verlet.cpp:54)
Neighbor list info ...
  update every 1 steps, delay 10 steps, check yes
  max neighbors/atom: 5000, page size: 100000
  master list distance cutoff = 4.8
  ghost atom cutoff = 4.8
  binsize = 2.4, bins = 2 3 11
  2 neighbor lists, perpetual/occasional/extra = 2 0 0
  (1) pair meam/c, perpetual
      attributes: full, newton on
      pair build: full/bin/atomonly
      stencil: full/bin/3d
      bin: standard
  (2) pair meam/c, perpetual, half/full from (1)
      attributes: half, newton on
      pair build: halffull/newton
      stencil: none
      bin: none
Per MPI rank memory allocation (min/avg/max) = 8.642 | 8.642 | 8.642 Mbytes
TotEng Pxx Pyy Pzz Pxy Pxz Pyz 
  -161.51035   -23359.216   -23156.078   -14545.468 -0.046782931  0.015208634    1277.7805 
Loop time of 7.15256e-07 on 1 procs for 0 steps with 26 atoms

139.8% CPU use with 1 MPI tasks x 1 OpenMP threads

MPI task timing breakdown:
Section |  min time  |  avg time  |  max time  |%varavg| %total
---------------------------------------------------------------
Pair    | 0          | 0          | 0          |   0.0 |  0.00
Neigh   | 0          | 0          | 0          |   0.0 |  0.00
Comm    | 0          | 0          | 0          |   0.0 |  0.00
Output  | 0          | 0          | 0          |   0.0 |  0.00
Modify  | 0          | 0          | 0          |   0.0 |  0.00
Other   |            | 7.153e-07  |            |       |100.00

Nlocal:    26 ave 26 max 26 min
Histogram: 1 0 0 0 0 0 0 0 0 0
Nghost:    302 ave 302 max 302 min
Histogram: 1 0 0 0 0 0 0 0 0 0
Neighs:    298 ave 298 max 298 min
Histogram: 1 0 0 0 0 0 0 0 0 0
FullNghs:  596 ave 596 max 596 min
Histogram: 1 0 0 0 0 0 0 0 0 0

Total # of neighbors = 596
Ave neighs/atom = 22.9231
Neighbor list builds = 0
Dangerous builds = 0
OMP_NUM_THREADS environment is not set. Defaulting to 1 thread. (../comm.cpp:95)
  using 1 OpenMP thread(s) per MPI task
  triclinic box = (0.0 0.0 0.0) to (4.5424 5.5633 25.7353) with tilt (3.40642626411002e-16 1.57578059487625e-15 1.57578059487625e-15)
  1 by 1 by 1 MPI processor grid
  reading atoms ...
  26 atoms
  read_data CPU = 0.001 secs
Reading potential file ref.lib with DATE: 2012-06-29
  triclinic box = (0.0 0.0 0.0) to (4.5424 5.5633 25.7353) with tilt (3.40642626411002e-16 1.57578059487625e-15 1.57578059487625e-15)
WARNING: No fixes defined, atoms won't move (../verlet.cpp:54)
Neighbor list info ...
  update every 1 steps, delay 10 steps, check yes
  max neighbors/atom: 5000, page size: 100000
  master list distance cutoff = 4.8
  ghost atom cutoff = 4.8
  binsize = 2.4, bins = 2 3 11
  2 neighbor lists, perpetual/occasional/extra = 2 0 0
  (1) pair meam/c, perpetual
      attributes: full, newton on
      pair build: full/bin/atomonly
      stencil: full/bin/3d
      bin: standard
  (2) pair meam/c, perpetual, half/full from (1)
      attributes: half, newton on
      pair build: halffull/newton
      stencil: none
      bin: none
Per MPI rank memory allocation (min/avg/max) = 8.652 | 8.652 | 8.652 Mbytes
TotEng Pxx Pyy Pzz Pxy Pxz Pyz 
  -162.01266   -23140.295   -26762.693   -23040.131 -0.021972647  0.022939616   -2285.1005 
Loop time of 4.76837e-07 on 1 procs for 0 steps with 26 atoms

209.7% CPU use with 1 MPI tasks x 1 OpenMP threads

MPI task timing breakdown:
Section |  min time  |  avg time  |  max time  |%varavg| %total
---------------------------------------------------------------
Pair    | 0          | 0          | 0          |   0.0 |  0.00
Neigh   | 0          | 0          | 0          |   0.0 |  0.00
Comm    | 0          | 0          | 0          |   0.0 |  0.00
Output  | 0          | 0          | 0          |   0.0 |  0.00
Modify  | 0          | 0          | 0          |   0.0 |  0.00
Other   |            | 4.768e-07  |            |       |100.00

Nlocal:    26 ave 26 max 26 min
Histogram: 1 0 0 0 0 0 0 0 0 0
Nghost:    309 ave 309 max 309 min
Histogram: 1 0 0 0 0 0 0 0 0 0
Neighs:    302 ave 302 max 302 min
Histogram: 1 0 0 0 0 0 0 0 0 0
FullNghs:  604 ave 604 max 604 min
Histogram: 1 0 0 0 0 0 0 0 0 0

Total # of neighbors = 604
Ave neighs/atom = 23.2308
Neighbor list builds = 0
Dangerous builds = 0
OMP_NUM_THREADS environment is not set. Defaulting to 1 thread. (../comm.cpp:95)
  using 1 OpenMP thread(s) per MPI task
  triclinic box = (0.0 0.0 0.0) to (4.5424 5.5633 25.7353) with tilt (3.40642626411002e-16 1.57578059487625e-15 1.57578059487625e-15)
  1 by 1 by 1 MPI processor grid
  reading atoms ...
  26 atoms
  read_data CPU = 0.001 secs
Reading potential file ref.lib with DATE: 2012-06-29
  triclinic box = (0.0 0.0 0.0) to (4.5424 5.5633 25.7353) with tilt (3.40642626411002e-16 1.57578059487625e-15 1.57578059487625e-15)
WARNING: No fixes defined, atoms won't move (../verlet.cpp:54)
Neighbor list info ...
  update every 1 steps, delay 10 steps, check yes
  max neighbors/atom: 5000, page size: 100000
  master list distance cutoff = 4.8
  ghost atom cutoff = 4.8
  binsize = 2.4, bins = 2 3 11
  2 neighbor lists, perpetual/occasional/extra = 2 0 0
  (1) pair meam/c, perpetual
      attributes: full, newton on
      pair build: full/bin/atomonly
      stencil: full/bin/3d
      bin: standard
  (2) pair meam/c, perpetual, half/full from (1)
      attributes: half, newton on
      pair build: halffull/newton
      stencil: none
      bin: none
Per MPI rank memory allocation (min/avg/max) = 8.646 | 8.646 | 8.646 Mbytes
TotEng Pxx Pyy Pzz Pxy Pxz Pyz 
  -161.50602    -16869.31   -23842.713   -20685.169 0.0073163154  0.022129358    -10125.63 
Loop time of 4.76837e-07 on 1 procs for 0 steps with 26 atoms

209.7% CPU use with 1 MPI tasks x 1 OpenMP threads

MPI task timing breakdown:
Section |  min time  |  avg time  |  max time  |%varavg| %total
---------------------------------------------------------------
Pair    | 0          | 0          | 0          |   0.0 |  0.00
Neigh   | 0          | 0          | 0          |   0.0 |  0.00
Comm    | 0          | 0          | 0          |   0.0 |  0.00
Output  | 0          | 0          | 0          |   0.0 |  0.00
Modify  | 0          | 0          | 0          |   0.0 |  0.00
Other   |            | 4.768e-07  |            |       |100.00

Nlocal:    26 ave 26 max 26 min
Histogram: 1 0 0 0 0 0 0 0 0 0
Nghost:    302 ave 302 max 302 min
Histogram: 1 0 0 0 0 0 0 0 0 0
Neighs:    298 ave 298 max 298 min
Histogram: 1 0 0 0 0 0 0 0 0 0
FullNghs:  596 ave 596 max 596 min
Histogram: 1 0 0 0 0 0 0 0 0 0

Total # of neighbors = 596
Ave neighs/atom = 22.9231
Neighbor list builds = 0
Dangerous builds = 0
OMP_NUM_THREADS environment is not set. Defaulting to 1 thread. (../comm.cpp:95)
  using 1 OpenMP thread(s) per MPI task
  triclinic box = (0.0 0.0 0.0) to (13.8138 16.9129769029218 7.0) with tilt (-0.0645282204333673 4.28612223837832e-16 4.30250631146712e-16)
  1 by 1 by 1 MPI processor grid
  reading atoms ...
  72 atoms
  read_data CPU = 0.001 secs
Reading potential file ref.lib with DATE: 2012-06-29
  triclinic box = (0.0 0.0 0.0) to (13.8138 16.9129769029218 7.0) with tilt (-0.0645282204333673 4.28612223837832e-16 4.30250631146712e-16)
WARNING: No fixes defined, atoms won't move (../verlet.cpp:54)
Neighbor list info ...
  update every 1 steps, delay 10 steps, check yes
  max neighbors/atom: 5000, page size: 100000
  master list distance cutoff = 4.8
  ghost atom cutoff = 4.8
  binsize = 2.4, bins = 6 8 3
  2 neighbor lists, perpetual/occasional/extra = 2 0 0
  (1) pair meam/c, perpetual
      attributes: full, newton on
      pair build: full/bin/atomonly
      stencil: full/bin/3d
      bin: standard
  (2) pair meam/c, perpetual, half/full from (1)
      attributes: half, newton on
      pair build: halffull/newton
      stencil: none
      bin: none
Per MPI rank memory allocation (min/avg/max) = 8.765 | 8.765 | 8.765 Mbytes
TotEng Pxx Pyy Pzz Pxy Pxz Pyz 
  -429.30473   -195837.87   -188826.22   -229801.32   -1782.0847    4255.7605   -437.06067 
Loop time of 4.76837e-07 on 1 procs for 0 steps with 72 atoms

209.7% CPU use with 1 MPI tasks x 1 OpenMP threads

MPI task timing breakdown:
Section |  min time  |  avg time  |  max time  |%varavg| %total
---------------------------------------------------------------
Pair    | 0          | 0          | 0          |   0.0 |  0.00
Neigh   | 0          | 0          | 0          |   0.0 |  0.00
Comm    | 0          | 0          | 0          |   0.0 |  0.00
Output  | 0          | 0          | 0          |   0.0 |  0.00
Modify  | 0          | 0          | 0          |   0.0 |  0.00
Other   |            | 4.768e-07  |            |       |100.00

Nlocal:    72 ave 72 max 72 min
Histogram: 1 0 0 0 0 0 0 0 0 0
Nghost:    468 ave 468 max 468 min
Histogram: 1 0 0 0 0 0 0 0 0 0
Neighs:    791 ave 791 max 791 min
Histogram: 1 0 0 0 0 0 0 0 0 0
FullNghs:  1582 ave 1582 max 1582 min
Histogram: 1 0 0 0 0 0 0 0 0 0

Total # of neighbors = 1582
Ave neighs/atom = 21.9722
Neighbor list builds = 0
Dangerous builds = 0
OMP_NUM_THREADS environment is not set. Defaulting to 1 thread. (../comm.cpp:95)
  using 1 OpenMP thread(s) per MPI task
  triclinic box = (0.0 0.0 0.0) to (13.8138 16.9129769029218 7.0) with tilt (-0.0645282204333673 4.28612223837832e-16 4.30250631146712e-16)
  1 by 1 by 1 MPI processor grid
  reading atoms ...
  72 atoms
  read_data CPU = 0.001 secs
Reading potential file ref.lib with DATE: 2012-06-29
  triclinic box = (0.0 0.0 0.0) to (13.8138 16.9129769029218 7.0) with tilt (-0.0645282204333673 4.28612223837832e-16 4.30250631146712e-16)
WARNING: No fixes defined, atoms won't move (../verlet.cpp:54)
Neighbor list info ...
  update every 1 steps, delay 10 steps, check yes
  max neighbors/atom: 5000, page size: 100000
  master list distance cutoff = 4.8
  ghost atom cutoff = 4.8
  binsize = 2.4, bins = 6 8 3
  2 neighbor lists, perpetual/occasional/extra = 2 0 0
  (1) pair meam/c, perpetual
      attributes: full, newton on
      pair build: full/bin/atomonly
      stencil: full/bin/3d
      bin: standard
  (2) pair meam/c, perpetual, half/full from (1)
      attributes: half, newton on
      pair build: halffull/newton
      stencil: none
      bin: none
Per MPI rank memory allocation (min/avg/max) = 8.754 | 8.754 | 8.754 Mbytes
TotEng Pxx Pyy Pzz Pxy Pxz Pyz 
  -236.96939   -173888.51    566833.78   -148730.73    20788.795    2450.6916    -51031.82 
Loop time of 7.15256e-07 on 1 procs for 0 steps with 72 atoms

139.8% CPU use with 1 MPI tasks x 1 OpenMP threads

MPI task timing breakdown:
Section |  min time  |  avg time  |  max time  |%varavg| %total
---------------------------------------------------------------
Pair    | 0          | 0          | 0          |   0.0 |  0.00
Neigh   | 0          | 0          | 0          |   0.0 |  0.00
Comm    | 0          | 0          | 0          |   0.0 |  0.00
Output  | 0          | 0          | 0          |   0.0 |  0.00
Modify  | 0          | 0          | 0          |   0.0 |  0.00
Other   |            | 7.153e-07  |            |       |100.00

Nlocal:    72 ave 72 max 72 min
Histogram: 1 0 0 0 0 0 0 0 0 0
Nghost:    435 ave 435 max 435 min
Histogram: 1 0 0 0 0 0 0 0 0 0
Neighs:    719 ave 719 max 719 min
Histogram: 1 0 0 0 0 0 0 0 0 0
FullNghs:  1438 ave 1438 max 1438 min
Histogram: 1 0 0 0 0 0 0 0 0 0

Total # of neighbors = 1438
Ave neighs/atom = 19.9722
Neighbor list builds = 0
Dangerous builds = 0
OMP_NUM_THREADS environment is not set. Defaulting to 1 thread. (../comm.cpp:95)
  using 1 OpenMP thread(s) per MPI task
  triclinic box = (0.0 0.0 0.0) to (13.8138 16.9129769029218 7.0) with tilt (-0.0645282204333673 4.28612223837832e-16 4.30250631146712e-16)
  1 by 1 by 1 MPI processor grid
  reading atoms ...
  72 atoms
  read_data CPU = 0.001 secs
Reading potential file ref.lib with DATE: 2012-06-29
  triclinic box = (0.0 0.0 0.0) to (13.8138 16.9129769029218 7.0) with tilt (-0.0645282204333673 4.28612223837832e-16 4.30250631146712e-16)
WARNING: No fixes defined, atoms won't move (../verlet.cpp:54)
Neighbor list info ...
  update every 1 steps, delay 10 steps, check yes
  max neighbors/atom: 5000, page size: 100000
  master list distance cutoff = 4.8
  ghost atom cutoff = 4.8
  binsize = 2.4, bins = 6 8 3
  2 neighbor lists, perpetual/occasional/extra = 2 0 0
  (1) pair meam/c, perpetual
      attributes: full, newton on
      pair build: full/bin/atomonly
      stencil: full/bin/3d
      bin: standard
  (2) pair meam/c, perpetual, half/full from (1)
      attributes: half, newton on
      pair build: halffull/newton
      stencil: none
      bin: none
Per MPI rank memory allocation (min/avg/max) = 8.756 | 8.756 | 8.756 Mbytes
TotEng Pxx Pyy Pzz Pxy Pxz Pyz 
   703.25698   -155214.93    2076762.7   -187599.52   -141768.97    1749.3135    29694.265 
Loop time of 4.76837e-07 on 1 procs for 0 steps with 72 atoms

209.7% CPU use with 1 MPI tasks x 1 OpenMP threads

MPI task timing breakdown:
Section |  min time  |  avg time  |  max time  |%varavg| %total
---------------------------------------------------------------
Pair    | 0          | 0          | 0          |   0.0 |  0.00
Neigh   | 0          | 0          | 0          |   0.0 |  0.00
Comm    | 0          | 0          | 0          |   0.0 |  0.00
Output  | 0          | 0          | 0          |   0.0 |  0.00
Modify  | 0          | 0          | 0          |   0.0 |  0.00
Other   |            | 4.768e-07  |            |       |100.00

Nlocal:    72 ave 72 max 72 min
Histogram: 1 0 0 0 0 0 0 0 0 0
Nghost:    444 ave 444 max 444 min
Histogram: 1 0 0 0 0 0 0 0 0 0
Neighs:    722 ave 722 max 722 min
Histogram: 1 0 0 0 0 0 0 0 0 0
FullNghs:  1444 ave 1444 max 1444 min
Histogram: 1 0 0 0 0 0 0 0 0 0

Total # of neighbors = 1444
Ave neighs/atom = 20.0556
Neighbor list builds = 0
Dangerous builds = 0
OMP_NUM_THREADS environment is not set. Defaulting to 1 thread. (../comm.cpp:95)
  using 1 OpenMP thread(s) per MPI task
  triclinic box = (0.0 0.0 0.0) to (13.8138 16.9129769029218 7.0) with tilt (-0.0645282204333673 4.28612223837832e-16 4.30250631146712e-16)
  1 by 1 by 1 MPI processor grid
  reading atoms ...
  72 atoms
  read_data CPU = 0.001 secs
Reading potential file ref.lib with DATE: 2012-06-29
  triclinic box = (0.0 0.0 0.0) to (13.8138 16.9129769029218 7.0) with tilt (-0.0645282204333673 4.28612223837832e-16 4.30250631146712e-16)
WARNING: No fixes defined, atoms won't move (../verlet.cpp:54)
Neighbor list info ...
  update every 1 steps, delay 10 steps, check yes
  max neighbors/atom: 5000, page size: 100000
  master list distance cutoff = 4.8
  ghost atom cutoff = 4.8
  binsize = 2.4, bins = 6 8 3
  2 neighbor lists, perpetual/occasional/extra = 2 0 0
  (1) pair meam/c, perpetual
      attributes: full, newton on
      pair build: full/bin/atomonly
      stencil: full/bin/3d
      bin: standard
  (2) pair meam/c, perpetual, half/full from (1)
      attributes: half, newton on
      pair build: halffull/newton
      stencil: none
      bin: none
Per MPI rank memory allocation (min/avg/max) = 8.756 | 8.756 | 8.756 Mbytes
TotEng Pxx Pyy Pzz Pxy Pxz Pyz 
   251.02124   -170369.38    1004359.7   -132189.58    24630.198    4490.9929   -168326.96 
Loop time of 4.76837e-07 on 1 procs for 0 steps with 72 atoms

209.7% CPU use with 1 MPI tasks x 1 OpenMP threads

MPI task timing breakdown:
Section |  min time  |  avg time  |  max time  |%varavg| %total
---------------------------------------------------------------
Pair    | 0          | 0          | 0          |   0.0 |  0.00
Neigh   | 0          | 0          | 0          |   0.0 |  0.00
Comm    | 0          | 0          | 0          |   0.0 |  0.00
Output  | 0          | 0          | 0          |   0.0 |  0.00
Modify  | 0          | 0          | 0          |   0.0 |  0.00
Other   |            | 4.768e-07  |            |       |100.00

Nlocal:    72 ave 72 max 72 min
Histogram: 1 0 0 0 0 0 0 0 0 0
Nghost:    447 ave 447 max 447 min
Histogram: 1 0 0 0 0 0 0 0 0 0
Neighs:    685 ave 685 max 685 min
Histogram: 1 0 0 0 0 0 0 0 0 0
FullNghs:  1370 ave 1370 max 1370 min
Histogram: 1 0 0 0 0 0 0 0 0 0

Total # of neighbors = 1370
Ave neighs/atom = 19.0278
Neighbor list builds = 0
Dangerous builds = 0
OMP_NUM_THREADS environment is not set. Defaulting to 1 thread. (../comm.cpp:95)
  using 1 OpenMP thread(s) per MPI task
  triclinic box = (0.0 0.0 0.0) to (13.8138 16.9129769029218 7.0) with tilt (-0.0645282204333673 4.28612223837832e-16 4.30250631146712e-16)
  1 by 1 by 1 MPI processor grid
  reading atoms ...
  72 atoms
  read_data CPU = 0.001 secs
Reading potential file ref.lib with DATE: 2012-06-29
  triclinic box = (0.0 0.0 0.0) to (13.8138 16.9129769029218 7.0) with tilt (-0.0645282204333673 4.28612223837832e-16 4.30250631146712e-16)
WARNING: No fixes defined, atoms won't move (../verlet.cpp:54)
Neighbor list info ...
  update every 1 steps, delay 10 steps, check yes
  max neighbors/atom: 5000, page size: 100000
  master list distance cutoff = 4.8
  ghost atom cutoff = 4.8
  binsize = 2.4, bins = 6 8 3
  2 neighbor lists, perpetual/occasional/extra = 2 0 0
  (1) pair meam/c, perpetual
      attributes: full, newton on
      pair build: full/bin/atomonly
      stencil: full/bin/3d
      bin: standard
  (2) pair meam/c, perpetual, half/full from (1)
      attributes: half, newton on
      pair build: halffull/newton
      stencil: none
      bin: none
Per MPI rank memory allocation (min/avg/max) = 8.752 | 8.752 | 8.752 Mbytes
TotEng Pxx Pyy Pzz Pxy Pxz Pyz 
  -337.80954   -143312.25    185340.88   -173662.22   -4522.8332    1852.1765   -53883.031 
Loop time of 4.76837e-07 on 1 procs for 0 steps with 72 atoms

209.7% CPU use with 1 MPI tasks x 1 OpenMP threads

MPI task timing breakdown:
Section |  min time  |  avg time  |  max time  |%varavg| %total
---------------------------------------------------------------
Pair    | 0          | 0          | 0          |   0.0 |  0.00
Neigh   | 0          | 0          | 0          |   0.0 |  0.00
Comm    | 0          | 0          | 0          |   0.0 |  0.00
Output  | 0          | 0          | 0          |   0.0 |  0.00
Modify  | 0          | 0          | 0          |   0.0 |  0.00
Other   |            | 4.768e-07  |            |       |100.00

Nlocal:    72 ave 72 max 72 min
Histogram: 1 0 0 0 0 0 0 0 0 0
Nghost:    429 ave 429 max 429 min
Histogram: 1 0 0 0 0 0 0 0 0 0
Neighs:    735 ave 735 max 735 min
Histogram: 1 0 0 0 0 0 0 0 0 0
FullNghs:  1470 ave 1470 max 1470 min
Histogram: 1 0 0 0 0 0 0 0 0 0

Total # of neighbors = 1470
Ave neighs/atom = 20.4167
Neighbor list builds = 0
Dangerous builds = 0
Total wall time: 0:01:25
