LAMMPS data file via write_data, version 19 Sep 2019, timestep = 0

54 atoms
5 atom types

0.0000000000000000e+00 9.5660999999999987e+00 xlo xhi
0.0000000000000000e+00 9.5660999999999987e+00 ylo yhi
0.0000000000000000e+00 9.5660999999999987e+00 zlo zhi
5.8573534206501300e-16 5.8573534206501300e-16 5.8573534206501300e-16 xy xz yz

Masses

1 1
2 1
3 1
4 1
5 1

Atoms # atomic

1 1 1.5943257360000003e+00 1.5943257360000003e+00 1.5943257360000003e+00 0 0 0
2 5 0.0000000000000000e+00 0.0000000000000000e+00 0.0000000000000000e+00 0 0 0
19 1 1.5943257360000003e+00 1.5943257360000003e+00 4.7830257359999999e+00 0 0 0
20 5 1.9524511402167103e-16 1.9524511402167106e-16 3.1886999999999999e+00 0 0 0
37 1 1.5943257360000003e+00 1.5943257360000005e+00 7.9717257359999998e+00 0 0 0
38 5 3.9049022804334207e-16 3.9049022804334212e-16 6.3773999999999997e+00 0 0 0
7 1 1.5943257360000003e+00 4.7830257359999999e+00 1.5943257360000003e+00 0 0 0
8 5 1.9524511402167106e-16 3.1886999999999999e+00 0.0000000000000000e+00 0 0 0
25 1 1.5943257360000003e+00 4.7830257359999999e+00 4.7830257359999999e+00 0 0 0
26 5 3.9049022804334207e-16 3.1886999999999999e+00 3.1886999999999999e+00 0 0 0
43 1 1.5943257360000005e+00 4.7830257360000026e+00 7.9717257359999998e+00 0 0 0
44 5 5.8573534206501310e-16 3.1887000000000003e+00 6.3773999999999997e+00 0 0 0
13 1 1.5943257360000003e+00 7.9717257359999998e+00 1.5943257360000003e+00 0 0 0
14 5 3.9049022804334212e-16 6.3773999999999997e+00 0.0000000000000000e+00 0 0 0
31 1 1.5943257360000005e+00 7.9717257359999998e+00 4.7830257359999999e+00 0 0 0
32 5 5.8573534206501320e-16 6.3773999999999997e+00 3.1886999999999999e+00 0 0 0
49 1 1.5943257360000007e+00 7.9717257360000024e+00 7.9717257359999998e+00 0 0 0
50 5 7.8098045608668414e-16 6.3773999999999997e+00 6.3773999999999997e+00 0 0 0
3 1 4.7830257359999999e+00 1.5943257360000003e+00 1.5943257360000003e+00 0 0 0
4 5 3.1886999999999999e+00 0.0000000000000000e+00 0.0000000000000000e+00 0 0 0
21 1 4.7830257359999999e+00 1.5943257360000003e+00 4.7830257359999999e+00 0 0 0
22 5 3.1886999999999999e+00 1.9524511402167106e-16 3.1886999999999999e+00 0 0 0
39 1 4.7830257360000017e+00 1.5943257360000005e+00 7.9717257359999998e+00 0 0 0
40 5 3.1887000000000003e+00 3.9049022804334212e-16 6.3773999999999997e+00 0 0 0
9 1 4.7830257359999999e+00 4.7830257359999999e+00 1.5943257360000003e+00 0 0 0
10 5 3.1886999999999999e+00 3.1886999999999999e+00 0.0000000000000000e+00 0 0 0
27 1 4.7830257359999981e+00 4.7830257359999999e+00 4.7830257359999999e+00 0 0 0
28 5 3.1886999999999999e+00 3.1886999999999999e+00 3.1886999999999999e+00 0 0 0
45 1 4.7830257359999999e+00 4.7830257360000026e+00 7.9717257359999998e+00 0 0 0
46 5 3.1887000000000003e+00 3.1887000000000003e+00 6.3773999999999997e+00 0 0 0
15 1 4.7830257360000017e+00 7.9717257359999998e+00 1.5943257360000003e+00 0 0 0
16 5 3.1887000000000003e+00 6.3773999999999997e+00 0.0000000000000000e+00 0 0 0
33 1 4.7830257359999999e+00 7.9717257359999998e+00 4.7830257359999999e+00 0 0 0
34 5 3.1887000000000003e+00 6.3773999999999997e+00 3.1886999999999999e+00 0 0 0
51 1 4.7830257360000026e+00 7.9717257360000024e+00 7.9717257359999998e+00 0 0 0
52 5 3.1887000000000008e+00 6.3773999999999997e+00 6.3773999999999997e+00 0 0 0
5 1 7.9717257359999998e+00 1.5943257360000003e+00 1.5943257360000003e+00 0 0 0
6 5 6.3773999999999997e+00 0.0000000000000000e+00 0.0000000000000000e+00 0 0 0
23 1 7.9717257359999998e+00 1.5943257360000003e+00 4.7830257359999999e+00 0 0 0
24 5 6.3773999999999997e+00 1.9524511402167106e-16 3.1886999999999999e+00 0 0 0
41 1 7.9717257360000024e+00 1.5943257360000005e+00 7.9717257359999998e+00 0 0 0
42 5 6.3773999999999997e+00 3.9049022804334212e-16 6.3773999999999997e+00 0 0 0
11 1 7.9717257359999998e+00 4.7830257359999999e+00 1.5943257360000003e+00 0 0 0
12 5 6.3773999999999997e+00 3.1886999999999999e+00 0.0000000000000000e+00 0 0 0
29 1 7.9717257359999998e+00 4.7830257359999999e+00 4.7830257359999999e+00 0 0 0
30 5 6.3773999999999997e+00 3.1886999999999999e+00 3.1886999999999999e+00 0 0 0
47 1 7.9717257360000024e+00 4.7830257360000026e+00 7.9717257359999998e+00 0 0 0
48 5 6.3773999999999997e+00 3.1887000000000003e+00 6.3773999999999997e+00 0 0 0
17 1 7.9717257360000024e+00 7.9717257359999998e+00 1.5943257360000003e+00 0 0 0
18 5 6.3773999999999997e+00 6.3773999999999997e+00 0.0000000000000000e+00 0 0 0
35 1 7.9717257360000024e+00 7.9717257359999998e+00 4.7830257359999999e+00 0 0 0
36 5 6.3773999999999997e+00 6.3773999999999997e+00 3.1886999999999999e+00 0 0 0
53 1 7.9717257360000042e+00 7.9717257360000024e+00 7.9717257359999998e+00 0 0 0
54 5 6.3773999999999997e+00 6.3773999999999997e+00 6.3773999999999997e+00 0 0 0

Velocities

1 0.0000000000000000e+00 0.0000000000000000e+00 0.0000000000000000e+00
2 0.0000000000000000e+00 0.0000000000000000e+00 0.0000000000000000e+00
19 0.0000000000000000e+00 0.0000000000000000e+00 0.0000000000000000e+00
20 0.0000000000000000e+00 0.0000000000000000e+00 0.0000000000000000e+00
37 0.0000000000000000e+00 0.0000000000000000e+00 0.0000000000000000e+00
38 0.0000000000000000e+00 0.0000000000000000e+00 0.0000000000000000e+00
7 0.0000000000000000e+00 0.0000000000000000e+00 0.0000000000000000e+00
8 0.0000000000000000e+00 0.0000000000000000e+00 0.0000000000000000e+00
25 0.0000000000000000e+00 0.0000000000000000e+00 0.0000000000000000e+00
26 0.0000000000000000e+00 0.0000000000000000e+00 0.0000000000000000e+00
43 0.0000000000000000e+00 0.0000000000000000e+00 0.0000000000000000e+00
44 0.0000000000000000e+00 0.0000000000000000e+00 0.0000000000000000e+00
13 0.0000000000000000e+00 0.0000000000000000e+00 0.0000000000000000e+00
14 0.0000000000000000e+00 0.0000000000000000e+00 0.0000000000000000e+00
31 0.0000000000000000e+00 0.0000000000000000e+00 0.0000000000000000e+00
32 0.0000000000000000e+00 0.0000000000000000e+00 0.0000000000000000e+00
49 0.0000000000000000e+00 0.0000000000000000e+00 0.0000000000000000e+00
50 0.0000000000000000e+00 0.0000000000000000e+00 0.0000000000000000e+00
3 0.0000000000000000e+00 0.0000000000000000e+00 0.0000000000000000e+00
4 0.0000000000000000e+00 0.0000000000000000e+00 0.0000000000000000e+00
21 0.0000000000000000e+00 0.0000000000000000e+00 0.0000000000000000e+00
22 0.0000000000000000e+00 0.0000000000000000e+00 0.0000000000000000e+00
39 0.0000000000000000e+00 0.0000000000000000e+00 0.0000000000000000e+00
40 0.0000000000000000e+00 0.0000000000000000e+00 0.0000000000000000e+00
9 0.0000000000000000e+00 0.0000000000000000e+00 0.0000000000000000e+00
10 0.0000000000000000e+00 0.0000000000000000e+00 0.0000000000000000e+00
27 0.0000000000000000e+00 0.0000000000000000e+00 0.0000000000000000e+00
28 0.0000000000000000e+00 0.0000000000000000e+00 0.0000000000000000e+00
45 0.0000000000000000e+00 0.0000000000000000e+00 0.0000000000000000e+00
46 0.0000000000000000e+00 0.0000000000000000e+00 0.0000000000000000e+00
15 0.0000000000000000e+00 0.0000000000000000e+00 0.0000000000000000e+00
16 0.0000000000000000e+00 0.0000000000000000e+00 0.0000000000000000e+00
33 0.0000000000000000e+00 0.0000000000000000e+00 0.0000000000000000e+00
34 0.0000000000000000e+00 0.0000000000000000e+00 0.0000000000000000e+00
51 0.0000000000000000e+00 0.0000000000000000e+00 0.0000000000000000e+00
52 0.0000000000000000e+00 0.0000000000000000e+00 0.0000000000000000e+00
5 0.0000000000000000e+00 0.0000000000000000e+00 0.0000000000000000e+00
6 0.0000000000000000e+00 0.0000000000000000e+00 0.0000000000000000e+00
23 0.0000000000000000e+00 0.0000000000000000e+00 0.0000000000000000e+00
24 0.0000000000000000e+00 0.0000000000000000e+00 0.0000000000000000e+00
41 0.0000000000000000e+00 0.0000000000000000e+00 0.0000000000000000e+00
42 0.0000000000000000e+00 0.0000000000000000e+00 0.0000000000000000e+00
11 0.0000000000000000e+00 0.0000000000000000e+00 0.0000000000000000e+00
12 0.0000000000000000e+00 0.0000000000000000e+00 0.0000000000000000e+00
29 0.0000000000000000e+00 0.0000000000000000e+00 0.0000000000000000e+00
30 0.0000000000000000e+00 0.0000000000000000e+00 0.0000000000000000e+00
47 0.0000000000000000e+00 0.0000000000000000e+00 0.0000000000000000e+00
48 0.0000000000000000e+00 0.0000000000000000e+00 0.0000000000000000e+00
17 0.0000000000000000e+00 0.0000000000000000e+00 0.0000000000000000e+00
18 0.0000000000000000e+00 0.0000000000000000e+00 0.0000000000000000e+00
35 0.0000000000000000e+00 0.0000000000000000e+00 0.0000000000000000e+00
36 0.0000000000000000e+00 0.0000000000000000e+00 0.0000000000000000e+00
53 0.0000000000000000e+00 0.0000000000000000e+00 0.0000000000000000e+00
54 0.0000000000000000e+00 0.0000000000000000e+00 0.0000000000000000e+00
