LAMMPS data file via write_data, version 19 Sep 2019, timestep = 0

54 atoms
5 atom types

0.0000000000000000e+00 9.8084999999999987e+00 xlo xhi
0.0000000000000000e+00 9.8084999999999987e+00 ylo yhi
0.0000000000000000e+00 9.8084999999999987e+00 zlo zhi
6.0057757107333897e-16 6.0057757107333897e-16 6.0057757107333897e-16 xy xz yz

Masses

1 1
2 1
3 1
4 1
5 1

Atoms # atomic

1 2 1.6347499999999995e+00 1.6347499999999997e+00 1.6347499999999999e+00 0 0 0
2 4 0.0000000000000000e+00 0.0000000000000000e+00 0.0000000000000000e+00 0 0 0
19 2 1.6347499999999997e+00 1.6347499999999999e+00 4.9042499999999993e+00 0 0 0
20 4 2.0019252369111301e-16 2.0019252369111301e-16 3.2694999999999999e+00 0 0 0
37 2 1.6347499999999999e+00 1.6347499999999999e+00 8.1737500000000001e+00 0 0 0
38 4 4.0038504738222601e-16 4.0038504738222601e-16 6.5389999999999997e+00 0 0 0
7 2 1.6347499999999997e+00 4.9042499999999993e+00 1.6347499999999999e+00 0 0 0
8 4 2.0019252369111301e-16 3.2694999999999999e+00 0.0000000000000000e+00 0 0 0
25 2 1.6347499999999999e+00 4.9042499999999976e+00 4.9042499999999993e+00 0 0 0
26 4 4.0038504738222601e-16 3.2694999999999999e+00 3.2694999999999999e+00 0 0 0
43 2 1.6347499999999995e+00 4.9042500000000011e+00 8.1737500000000001e+00 0 0 0
44 4 6.0057757107333897e-16 3.2694999999999999e+00 6.5389999999999997e+00 0 0 0
13 2 1.6347499999999999e+00 8.1737500000000001e+00 1.6347499999999999e+00 0 0 0
14 4 4.0038504738222601e-16 6.5389999999999997e+00 0.0000000000000000e+00 0 0 0
31 2 1.6347499999999995e+00 8.1737500000000001e+00 4.9042499999999993e+00 0 0 0
32 4 6.0057757107333897e-16 6.5389999999999997e+00 3.2694999999999999e+00 0 0 0
49 2 1.6347499999999997e+00 8.1737500000000001e+00 8.1737500000000001e+00 0 0 0
50 4 8.0077009476445203e-16 6.5389999999999997e+00 6.5389999999999997e+00 0 0 0
3 2 4.9042499999999993e+00 1.6347499999999997e+00 1.6347499999999999e+00 0 0 0
4 4 3.2694999999999999e+00 0.0000000000000000e+00 0.0000000000000000e+00 0 0 0
21 2 4.9042499999999976e+00 1.6347499999999999e+00 4.9042499999999993e+00 0 0 0
22 4 3.2694999999999999e+00 2.0019252369111301e-16 3.2694999999999999e+00 0 0 0
39 2 4.9042499999999993e+00 1.6347499999999999e+00 8.1737500000000001e+00 0 0 0
40 4 3.2694999999999999e+00 4.0038504738222601e-16 6.5389999999999997e+00 0 0 0
9 2 4.9042499999999976e+00 4.9042499999999993e+00 1.6347499999999999e+00 0 0 0
10 4 3.2694999999999999e+00 3.2694999999999999e+00 0.0000000000000000e+00 0 0 0
27 2 4.9042499999999976e+00 4.9042499999999976e+00 4.9042499999999993e+00 0 0 0
28 4 3.2694999999999999e+00 3.2694999999999999e+00 3.2694999999999999e+00 0 0 0
45 2 4.9042499999999993e+00 4.9042500000000011e+00 8.1737500000000001e+00 0 0 0
46 4 3.2694999999999999e+00 3.2694999999999999e+00 6.5389999999999997e+00 0 0 0
15 2 4.9042499999999993e+00 8.1737500000000001e+00 1.6347499999999999e+00 0 0 0
16 4 3.2694999999999999e+00 6.5389999999999997e+00 0.0000000000000000e+00 0 0 0
33 2 4.9042499999999993e+00 8.1737500000000001e+00 4.9042499999999993e+00 0 0 0
34 4 3.2694999999999999e+00 6.5389999999999997e+00 3.2694999999999999e+00 0 0 0
51 2 4.9042500000000029e+00 8.1737500000000001e+00 8.1737500000000001e+00 0 0 0
52 4 3.2694999999999999e+00 6.5389999999999997e+00 6.5389999999999997e+00 0 0 0
5 2 8.1737499999999983e+00 1.6347499999999997e+00 1.6347499999999999e+00 0 0 0
6 4 6.5389999999999997e+00 0.0000000000000000e+00 0.0000000000000000e+00 0 0 0
23 2 8.1737499999999983e+00 1.6347499999999999e+00 4.9042499999999993e+00 0 0 0
24 4 6.5389999999999997e+00 2.0019252369111301e-16 3.2694999999999999e+00 0 0 0
41 2 8.1737499999999983e+00 1.6347499999999999e+00 8.1737500000000001e+00 0 0 0
42 4 6.5389999999999997e+00 4.0038504738222601e-16 6.5389999999999997e+00 0 0 0
11 2 8.1737499999999983e+00 4.9042499999999993e+00 1.6347499999999999e+00 0 0 0
12 4 6.5389999999999997e+00 3.2694999999999999e+00 0.0000000000000000e+00 0 0 0
29 2 8.1737499999999983e+00 4.9042499999999976e+00 4.9042499999999993e+00 0 0 0
30 4 6.5389999999999997e+00 3.2694999999999999e+00 3.2694999999999999e+00 0 0 0
47 2 8.1737499999999983e+00 4.9042500000000011e+00 8.1737500000000001e+00 0 0 0
48 4 6.5389999999999997e+00 3.2694999999999999e+00 6.5389999999999997e+00 0 0 0
17 2 8.1737499999999983e+00 8.1737500000000001e+00 1.6347499999999999e+00 0 0 0
18 4 6.5389999999999997e+00 6.5389999999999997e+00 0.0000000000000000e+00 0 0 0
35 2 8.1737499999999983e+00 8.1737500000000001e+00 4.9042499999999993e+00 0 0 0
36 4 6.5389999999999997e+00 6.5389999999999997e+00 3.2694999999999999e+00 0 0 0
53 2 8.1737499999999983e+00 8.1737500000000001e+00 8.1737500000000001e+00 0 0 0
54 4 6.5389999999999997e+00 6.5389999999999997e+00 6.5389999999999997e+00 0 0 0

Velocities

1 0.0000000000000000e+00 0.0000000000000000e+00 0.0000000000000000e+00
2 0.0000000000000000e+00 0.0000000000000000e+00 0.0000000000000000e+00
19 0.0000000000000000e+00 0.0000000000000000e+00 0.0000000000000000e+00
20 0.0000000000000000e+00 0.0000000000000000e+00 0.0000000000000000e+00
37 0.0000000000000000e+00 0.0000000000000000e+00 0.0000000000000000e+00
38 0.0000000000000000e+00 0.0000000000000000e+00 0.0000000000000000e+00
7 0.0000000000000000e+00 0.0000000000000000e+00 0.0000000000000000e+00
8 0.0000000000000000e+00 0.0000000000000000e+00 0.0000000000000000e+00
25 0.0000000000000000e+00 0.0000000000000000e+00 0.0000000000000000e+00
26 0.0000000000000000e+00 0.0000000000000000e+00 0.0000000000000000e+00
43 0.0000000000000000e+00 0.0000000000000000e+00 0.0000000000000000e+00
44 0.0000000000000000e+00 0.0000000000000000e+00 0.0000000000000000e+00
13 0.0000000000000000e+00 0.0000000000000000e+00 0.0000000000000000e+00
14 0.0000000000000000e+00 0.0000000000000000e+00 0.0000000000000000e+00
31 0.0000000000000000e+00 0.0000000000000000e+00 0.0000000000000000e+00
32 0.0000000000000000e+00 0.0000000000000000e+00 0.0000000000000000e+00
49 0.0000000000000000e+00 0.0000000000000000e+00 0.0000000000000000e+00
50 0.0000000000000000e+00 0.0000000000000000e+00 0.0000000000000000e+00
3 0.0000000000000000e+00 0.0000000000000000e+00 0.0000000000000000e+00
4 0.0000000000000000e+00 0.0000000000000000e+00 0.0000000000000000e+00
21 0.0000000000000000e+00 0.0000000000000000e+00 0.0000000000000000e+00
22 0.0000000000000000e+00 0.0000000000000000e+00 0.0000000000000000e+00
39 0.0000000000000000e+00 0.0000000000000000e+00 0.0000000000000000e+00
40 0.0000000000000000e+00 0.0000000000000000e+00 0.0000000000000000e+00
9 0.0000000000000000e+00 0.0000000000000000e+00 0.0000000000000000e+00
10 0.0000000000000000e+00 0.0000000000000000e+00 0.0000000000000000e+00
27 0.0000000000000000e+00 0.0000000000000000e+00 0.0000000000000000e+00
28 0.0000000000000000e+00 0.0000000000000000e+00 0.0000000000000000e+00
45 0.0000000000000000e+00 0.0000000000000000e+00 0.0000000000000000e+00
46 0.0000000000000000e+00 0.0000000000000000e+00 0.0000000000000000e+00
15 0.0000000000000000e+00 0.0000000000000000e+00 0.0000000000000000e+00
16 0.0000000000000000e+00 0.0000000000000000e+00 0.0000000000000000e+00
33 0.0000000000000000e+00 0.0000000000000000e+00 0.0000000000000000e+00
34 0.0000000000000000e+00 0.0000000000000000e+00 0.0000000000000000e+00
51 0.0000000000000000e+00 0.0000000000000000e+00 0.0000000000000000e+00
52 0.0000000000000000e+00 0.0000000000000000e+00 0.0000000000000000e+00
5 0.0000000000000000e+00 0.0000000000000000e+00 0.0000000000000000e+00
6 0.0000000000000000e+00 0.0000000000000000e+00 0.0000000000000000e+00
23 0.0000000000000000e+00 0.0000000000000000e+00 0.0000000000000000e+00
24 0.0000000000000000e+00 0.0000000000000000e+00 0.0000000000000000e+00
41 0.0000000000000000e+00 0.0000000000000000e+00 0.0000000000000000e+00
42 0.0000000000000000e+00 0.0000000000000000e+00 0.0000000000000000e+00
11 0.0000000000000000e+00 0.0000000000000000e+00 0.0000000000000000e+00
12 0.0000000000000000e+00 0.0000000000000000e+00 0.0000000000000000e+00
29 0.0000000000000000e+00 0.0000000000000000e+00 0.0000000000000000e+00
30 0.0000000000000000e+00 0.0000000000000000e+00 0.0000000000000000e+00
47 0.0000000000000000e+00 0.0000000000000000e+00 0.0000000000000000e+00
48 0.0000000000000000e+00 0.0000000000000000e+00 0.0000000000000000e+00
17 0.0000000000000000e+00 0.0000000000000000e+00 0.0000000000000000e+00
18 0.0000000000000000e+00 0.0000000000000000e+00 0.0000000000000000e+00
35 0.0000000000000000e+00 0.0000000000000000e+00 0.0000000000000000e+00
36 0.0000000000000000e+00 0.0000000000000000e+00 0.0000000000000000e+00
53 0.0000000000000000e+00 0.0000000000000000e+00 0.0000000000000000e+00
54 0.0000000000000000e+00 0.0000000000000000e+00 0.0000000000000000e+00
