ITEM: TIMESTEP
0
ITEM: NUMBER OF ATOMS
73252
ITEM: BOX BOUNDS pp pp pp
0.0 200.0
0.0 200.0
0.0 200.0
ITEM: ATOMS id type x y z
1 1 79.8638025 135.40952096 139.35823693
2 1 77.57720103 139.46158068 139.76640267
3 1 79.61324105 138.14462663 137.52422965
4 1 77.32663958 142.19668635 137.9323954
6 1 79.11211815 143.61483798 133.8562151
7 1 89.06127395 127.28921484 137.88599981
8 1 84.73863247 132.65822861 140.53633857
9 1 86.77467248 131.34127456 138.29416555
10 1 88.8107125 130.02432052 136.05199253
11 1 80.41599099 138.02724238 143.18667734
12 1 82.452031 136.71028833 140.94450432
13 1 82.30121748 134.03387479 139.94728775
14 1 84.48807102 135.39333428 138.7023313
15 1 84.3372575 132.71692074 137.70511473
16 1 86.52411103 134.07638024 136.46015828
17 1 88.56015105 132.75942619 134.21798526
18 1 78.12938952 142.0793021 143.59484308
19 1 77.978576 139.40288856 142.59762651
23 1 82.05065603 136.76898046 138.11328048
24 1 84.23750957 138.12843996 136.86832402
25 1 84.08669605 135.45202641 135.87110746
26 1 86.27354958 136.81148591 134.626151
27 1 77.72801455 142.13799423 140.76361924
28 1 79.91486808 143.49745373 139.51866279
31 1 81.80009458 139.50408613 136.2792732
32 1 83.98694811 140.86354563 135.03431675
33 1 83.8361346 138.18713208 134.03710018
34 1 86.02298813 139.54659158 132.79214373
35 1 79.66430663 146.2325594 137.68465551
36 1 79.51349311 143.55614585 136.68743895
38 1 81.54953313 142.2391918 134.44526593
39 1 83.73638666 143.5986513 133.20030947
40 1 85.77242668 142.28169725 130.95813645
41 1 79.26293166 146.29125152 134.85343167
42 1 81.4497852 147.65071102 133.60847522
43 1 81.29897168 144.97429747 132.61125865
44 1 83.48582521 146.33375697 131.3663022
45 1 85.52186523 145.01680292 129.12412918
46 1 81.19922374 150.38581669 131.77446794
47 1 81.04841023 147.70940314 130.77725138
48 1 83.23526376 149.06886264 129.53229492
49 1 85.27130377 147.75190859 127.2901219
50 1 80.79784877 150.44450882 128.9432441
51 1 82.98470231 151.80396831 127.69828765
52 1 85.02074232 150.48701427 125.45611463
53 1 82.73414086 154.53907399 125.86428037
54 1 84.77018087 153.22211994 123.62210735
55 1 84.51961942 155.95722561 121.78810008
56 1 98.2587454 119.16890873 136.41376269
57 1 93.93610392 124.5379225 139.06410145
58 1 95.97214394 123.22096845 136.82192843
59 1 98.00818395 121.9040144 134.57975541
60 1 89.61346244 129.90693627 141.71444022
61 1 91.64950245 128.58998222 139.4722672
62 1 91.49868894 125.91356867 138.47505063
63 1 93.68554247 127.27302817 137.23009418
64 1 93.53472895 124.59661462 136.23287761
65 1 95.72158248 125.95607412 134.98792116
66 1 97.7576225 124.63912007 132.74574814
67 1 85.29082095 135.27595003 144.36477898
68 1 87.32686097 133.95899599 142.12260596
69 1 87.17604745 131.28258244 141.12538939
71 1 89.21208747 129.96562839 138.88321637
73 1 91.24812748 128.64867434 136.64104335
74 1 93.43498102 130.00813384 135.3960869
75 1 93.2841675 127.33172029 134.39887034
76 1 95.47102103 128.69117979 133.15391388
77 1 80.96817947 140.6449638 147.01511774
78 1 83.00421949 139.32800976 144.77294472
79 1 82.85340597 136.65159621 143.77572816
81 1 84.88944599 135.33464216 141.53355514
85 1 88.96152602 132.70073406 137.0492091
87 1 90.99756603 131.38378001 134.80703608
88 1 93.18441957 132.74323951 133.56207963
89 1 95.22045958 131.42628546 131.31990661
90 1 78.53076449 142.02060998 146.42606692
91 1 80.71761802 143.38006948 145.18111047
92 1 80.5668045 140.70365593 144.1838939
100 1 88.71096457 135.43583973 135.21520182
101 1 90.8978181 136.79529923 133.97024537
102 1 90.74700458 134.11888569 132.97302881
103 1 92.93385811 135.47834518 131.72807235
104 1 94.96989813 134.16139114 129.48589933
105 1 80.46705657 146.11517515 143.34710319
106 1 80.31624305 143.4387616 142.34988663
114 1 88.46040311 138.17094541 133.38119455
115 1 90.64725665 139.5304049 132.1362381
116 1 90.49644313 136.85399136 131.13902153
117 1 92.68329666 138.21345086 129.89406508
118 1 94.71933668 136.89649681 127.65189206
119 1 80.0656816 146.17386727 140.51587935
120 1 82.25253513 147.53332677 139.2709229
125 1 86.17380165 142.22300513 133.78936029
127 1 88.20984166 140.90605108 131.54718728
128 1 90.39669519 142.26551058 130.30223082
129 1 90.24588168 139.58909703 129.30501426
130 1 92.43273521 140.94855653 128.0600578
131 1 94.46877523 139.63160248 125.81788478
132 1 82.00197368 150.26843244 137.43691563
133 1 81.85116016 147.59201889 136.43969906
137 1 85.92324019 144.9581108 131.95535302
139 1 87.95928021 143.64115675 129.71318
140 1 90.14613374 145.00061625 128.46822355
141 1 89.99532023 142.3242027 127.47100698
142 1 92.18217376 143.6836622 126.22605053
143 1 94.21821377 142.36670815 123.98387751
144 1 81.60059871 150.32712457 134.60569178
145 1 83.78745224 151.68658406 133.36073533
148 1 85.67267874 147.69321647 130.12134575
150 1 87.70871876 146.37626242 127.87917273
151 1 89.89557229 147.73572192 126.63421627
152 1 89.74475877 145.05930837 125.63699971
153 1 91.93161231 146.41876787 124.39204325
154 1 93.96765232 145.10181382 122.14987023
155 1 83.53689079 154.42168974 131.52672806
156 1 83.38607728 151.74527619 130.52951149
158 1 85.42211729 150.42832214 128.28733847
160 1 87.45815731 149.11136809 126.04516545
161 1 89.64501084 150.47082759 124.800209
162 1 89.49419732 147.79441404 123.80299243
163 1 91.68105086 149.15387354 122.55803598
164 1 93.71709087 147.83691949 120.31586296
165 1 83.13551582 154.48038186 128.69550422
166 1 85.32236936 155.83984136 127.45054776
167 1 85.17155584 153.16342781 126.4533312
169 1 87.20759586 151.84647376 124.21115818
170 1 89.39444939 153.20593326 122.96620172
171 1 89.24363587 150.52951972 121.96898516
172 1 91.4304894 151.88897921 120.7240287
173 1 93.46652942 150.57202517 118.48185568
174 1 85.07180791 158.57494703 125.61654049
175 1 84.92099439 155.89853348 124.61932392
176 1 87.10784792 157.25799298 123.37436747
177 1 86.9570344 154.58157944 122.3771509
178 1 89.14388794 155.94103893 121.13219445
179 1 88.99307442 153.26462539 120.13497788
180 1 91.17992795 154.62408489 118.89002143
181 1 93.21596797 153.30713084 116.64784841
182 1 86.85728647 159.99309865 121.54036019
183 1 86.70647295 157.31668511 120.54314363
184 1 88.89332648 158.67614461 119.29818717
185 1 88.74251297 155.99973106 118.30097061
186 1 90.9293665 157.35919056 117.05601415
187 1 86.4559115 160.05179078 118.70913635
188 1 88.64276503 161.41125028 117.4641799
189 1 88.49195152 158.73483673 116.46696333
190 1 90.67880505 160.09429623 115.22200688
191 1 88.39220358 164.14635595 115.63017262
192 1 90.4282436 162.8294019 113.3879996
193 1 90.17768215 165.56450757 111.55399233
194 1 89.92712069 168.29961324 109.71998506
195 1 107.45621685 111.04860261 134.94152557
196 1 103.13357537 116.41761638 137.59186433
197 1 105.16961539 115.10066233 135.34969131
198 1 107.2056554 113.78370829 133.10751829
199 1 98.81093389 121.78663015 140.24220309
200 1 100.8469739 120.4696761 138.00003008
201 1 100.69616039 117.79326256 137.00281351
202 1 102.88301392 119.15272205 135.75785706
203 1 102.7322004 116.47630851 134.76064049
204 1 104.91905394 117.83576801 133.51568404
205 1 94.48829241 127.15564392 142.89254186
206 1 96.52433242 125.83868987 140.65036884
207 1 96.3735189 123.16227632 139.65315227
209 1 98.40955892 121.84532228 137.41097925
211 1 100.44559894 120.52836823 135.16880623
212 1 102.63245247 121.88782773 133.92384978
213 1 102.48163895 119.21141418 132.92663321
214 1 104.66849248 120.57087368 131.68167676
215 1 90.16565092 132.52465769 145.54288062
216 1 92.20169094 131.20770364 143.3007076
217 1 92.05087742 128.53129009 142.30349104
219 1 94.08691744 127.21433604 140.06131802
223 1 98.15899747 124.58042795 135.57697198
225 1 100.19503748 123.2634739 133.33479896
226 1 102.38189102 124.6229334 132.08984251
227 1 104.41793103 123.30597935 129.84766949
228 1 85.84300944 137.89367146 148.19321939
229 1 87.87904946 136.57671741 145.95104637
230 1 87.72823594 133.90030386 144.9538298
232 1 89.76427595 132.58334981 142.71165678
240 1 97.90843602 127.31553362 133.7429647
241 1 100.09528955 128.67499312 132.49800825
242 1 99.94447603 125.99857957 131.50079168
243 1 102.13132956 127.35803907 130.25583523
244 1 104.16736958 126.04108502 128.01366221
245 1 81.52036796 143.26268523 150.84355815
246 1 83.55640797 141.94573118 148.60138513
247 1 83.40559446 139.26931763 147.60416857
249 1 85.44163447 137.95236358 145.36199555
259 1 95.62183455 131.36759334 134.15113045
261 1 97.65787457 130.05063929 131.90895743
262 1 99.8447281 131.41009879 130.66400098
263 1 99.69391458 128.73368524 129.66678441
264 1 101.88076811 130.09314474 128.42182796
265 1 103.91680813 128.77619069 126.17965494
266 1 81.26980651 145.9977909 149.00955088
267 1 81.11899299 143.32137735 148.01233431
281 1 95.3712731 134.10269901 132.31712317
283 1 97.40731311 132.78574496 130.07495015
284 1 99.59416665 134.14520446 128.8299937
285 1 99.44335313 131.46879091 127.83277714
286 1 101.63020666 132.82825041 126.58782068
287 1 103.66624668 131.51129636 124.34564766
288 1 80.86843154 146.05648302 146.17832704
289 1 83.05528507 147.41594252 144.93337058
302 1 95.12071165 136.83780468 130.4831159
304 1 97.15675166 135.52085063 128.24094288
305 1 99.34360519 136.88031013 126.99598643
306 1 99.19279168 134.20389659 125.99876986
307 1 101.37964521 135.56335608 124.75381341
308 1 103.41568523 134.24640204 122.51164039
309 1 82.80472362 150.15104819 143.09936331
310 1 82.6539101 147.47463464 142.10214674
322 1 94.87015019 139.57291035 128.64910862
324 1 96.90619021 138.25595631 126.40693561
325 1 99.09304374 139.6154158 125.16197915
326 1 98.94223023 136.93900226 124.16476259
327 1 101.12908376 138.29846176 122.91980613
328 1 103.16512377 136.98150771 120.67763311
329 1 82.40334865 150.20974032 140.26813947
330 1 84.59020218 151.56919981 139.02318301
341 1 94.61958874 142.30801603 126.81510135
343 1 96.65562876 140.99106198 124.57292833
344 1 98.84248229 142.35052148 123.32797188
345 1 98.69166877 139.67410793 122.33075531
346 1 100.87852231 141.03356743 121.08579886
347 1 102.91456232 139.71661338 118.84362584
348 1 84.33964073 154.30430549 137.18917574
349 1 84.18882721 151.62789194 136.19195917
359 1 94.36902729 145.0431217 124.98109408
361 1 96.40506731 143.72616765 122.73892106
362 1 98.59192084 145.08562715 121.4939646
363 1 98.44110732 142.4092136 120.49674804
364 1 100.62796085 143.7686731 119.25179158
365 1 102.66400087 142.45171905 117.00961856
366 1 83.93826576 154.36299761 134.3579519
367 1 86.12511929 155.72245711 133.11299544
376 1 94.11846584 147.77822737 123.1470868
378 1 96.15450586 146.46127332 120.90491378
379 1 98.34135939 147.82073282 119.65995733
380 1 98.19054587 145.14431927 118.66274076
381 1 100.3773994 146.50377877 117.41778431
382 1 85.87455784 158.45756278 131.27898817
383 1 85.72374433 155.78114923 130.2817716
391 1 93.86790439 150.51333304 121.31307953
393 1 95.9039444 149.19637899 119.07090651
394 1 98.09079794 150.55583849 117.82595005
395 1 97.93998442 147.87942494 116.82873349
396 1 100.12683795 149.23888444 115.58377703
397 1 85.47318287 158.51625491 128.44776433
398 1 87.66003641 159.8757144 127.20280788
405 1 93.61734294 153.24843871 119.47907225
407 1 95.65338295 151.93148466 117.23689923
408 1 97.84023648 153.29094416 115.99194278
409 1 99.8762765 151.97399011 113.74976976
410 1 87.40947495 162.61082008 125.3688006
411 1 87.25866144 159.93440653 124.37158403
417 1 93.36678148 155.98354438 117.64506498
419 1 95.4028215 154.66659034 115.40289196
420 1 97.58967503 156.02604983 114.1579355
421 1 99.62571505 154.70909579 111.91576248
422 1 87.00809999 162.6695122 122.53757676
423 1 89.19495352 164.0289717 121.29262031
424 1 89.04414 161.35255815 120.29540374
428 1 93.11622003 158.71865006 115.8110577
430 1 95.15226005 157.40169601 113.56888468
431 1 97.33911358 158.76115551 112.32392823
433 1 88.94439207 166.76407737 119.45861303
434 1 88.79357855 164.08766382 118.46139647
435 1 90.98043208 165.44712332 117.21644001
436 1 90.82961857 162.77070978 116.21922345
438 1 92.86565858 161.45375573 113.97705043
439 1 95.05251211 162.81321523 112.73209397
440 1 94.9016986 160.13680168 111.73487741
441 1 97.08855213 161.49626118 110.48992095
443 1 90.72987063 168.18222899 115.38243274
444 1 90.57905711 165.50581545 114.38521617
446 1 92.61509713 164.1888614 112.14304315
447 1 94.80195066 165.5483209 110.8980867
448 1 94.65113715 162.87190735 109.90087013
449 1 96.83799068 164.23136685 108.65591368
450 1 98.87403069 162.9144128 106.41374066
451 1 90.32849566 168.24092112 112.5512089
452 1 92.51534919 169.60038062 111.30625244
453 1 92.36453568 166.92396707 110.30903588
454 1 94.55138921 168.28342657 109.06407942
455 1 94.40057569 165.60701302 108.06686286
456 1 96.58742923 166.96647252 106.8219064
457 1 98.62346924 165.64951847 104.57973339
458 1 92.26478774 172.33548629 109.47224517
459 1 92.11397423 169.65907274 108.4750286
460 1 94.30082776 171.01853224 107.23007215
461 1 94.15001424 168.34211869 106.23285558
462 1 96.33686777 169.70157819 104.98789913
463 1 98.37290779 168.38462414 102.74572611
464 1 91.86341277 172.39417841 106.64102133
465 1 94.05026631 173.75363791 105.39606487
466 1 93.89945279 171.07722437 104.39884831
467 1 96.08630632 172.43668386 103.15389185
468 1 98.12234634 171.11972982 100.91171884
469 1 116.65368831 102.9282965 133.46928845
470 1 112.33104682 108.29731027 136.11962721
471 1 114.36708684 106.98035622 133.87745419
472 1 108.00840534 113.66632404 138.76996597
473 1 110.04444536 112.34936999 136.52779295
474 1 109.89363184 109.67295644 135.53057639
475 1 112.08048537 111.03241594 134.28561994
476 1 111.92967185 108.35600239 133.28840337
477 1 114.11652539 109.71546189 132.04344692
478 1 103.68576386 119.0353378 141.42030474
479 1 105.72180387 117.71838376 139.17813172
480 1 105.57099036 115.04197021 138.18091515
482 1 107.60703037 113.72501616 135.93874213
484 1 109.64307039 112.40806211 133.69656911
485 1 111.82992392 113.76752161 132.45161266
486 1 113.86596394 112.45056756 130.20943964
487 1 99.36312237 124.40435157 144.0706435
488 1 101.39916239 123.08739752 141.82847048
489 1 101.24834887 120.41098398 140.83125392
491 1 103.28438889 119.09402993 138.5890809
495 1 107.35646892 116.46012183 134.10473486
496 1 109.54332245 117.81958133 132.85977841
497 1 109.39250894 115.14316778 131.86256184
498 1 111.57936247 116.50262728 130.61760539
499 1 113.61540248 115.18567323 128.37543237
500 1 95.04048089 129.77336534 146.72098227
501 1 97.07652091 128.45641129 144.47880925
502 1 96.92570739 125.77999775 143.48159268
504 1 98.96174741 124.4630437 141.23941966
512 1 107.10590747 119.1952275 132.27072758
514 1 109.14194748 117.87827346 130.02855456
515 1 111.32880102 119.23773295 128.78359811
516 1 113.36484103 117.92077891 126.54142509
517 1 90.71783941 135.14237911 149.37132103
518 1 92.75387942 133.82542506 147.12914801
519 1 92.60306591 131.14901151 146.13193144
535 1 108.89138603 120.61337913 128.19454729
536 1 111.07823956 121.97283863 126.94959084
537 1 113.11427958 120.65588458 124.70741782
538 1 86.39519793 140.51139288 152.0216598
539 1 88.43123794 139.19443883 149.77948678
540 1 88.28042442 136.51802528 148.78227021
542 1 90.31646444 135.20107123 146.54009719
556 1 104.56874455 125.9823929 130.84488605
558 1 106.60478456 124.66543885 128.60271303
562 1 112.86371813 123.39099025 122.87341054
563 1 82.07255644 145.88040665 154.67199856
564 1 84.10859646 144.5634526 152.42982554
565 1 83.95778294 141.88703905 151.43260897
567 1 85.99382296 140.570085 149.19043595
585 1 104.3181831 128.71749857 129.01087878
587 1 106.35422311 127.40054452 126.76870576
588 1 108.54107665 128.76000402 125.52374931
589 1 108.39026313 126.08359047 124.52653274
590 1 110.57711666 127.44304997 123.28157629
592 1 81.82199499 148.61551232 152.83799128
593 1 81.67118147 145.93909877 151.84077472
615 1 104.06762165 131.45260424 127.1768715
617 1 106.10366166 130.13565019 124.93469848
618 1 108.29051519 131.49510969 123.68974203
619 1 108.13970168 128.81869614 122.69252546
620 1 110.32655521 130.17815564 121.44756901
621 1 112.36259523 128.86120159 119.20539599
622 1 81.42062002 148.67420444 150.00676744
623 1 83.60747355 150.03366394 148.76181099
624 1 83.45666004 147.35725039 147.76459442
644 1 103.81706019 134.18770991 125.34286423
646 1 105.85310021 132.87075586 123.10069121
647 1 108.03995374 134.23021536 121.85573476
648 1 107.88914023 131.55380181 120.85851819
649 1 110.07599376 132.91326131 119.61356174
650 1 112.11203377 131.59630726 117.37138872
651 1 83.3569121 152.76876961 146.92780372
652 1 83.20609859 150.09235607 145.93058715
653 1 85.39295212 151.45181556 144.6856307
672 1 103.56649874 136.92281558 123.50885695
674 1 105.60253876 135.60586153 121.26668393
675 1 107.78939229 136.96532103 120.02172748
676 1 107.63857877 134.28890749 119.02451092
677 1 109.82543231 135.64836698 117.77955446
678 1 111.86147232 134.33141294 115.53738144
679 1 85.14239067 154.18692124 142.85162342
680 1 84.99157715 151.51050769 141.85440685
698 1 103.31593729 139.65792125 121.67484968
700 1 105.35197731 138.34096721 119.43267666
701 1 107.53883084 139.7004267 118.18772021
702 1 107.38801732 137.02401316 117.19050364
703 1 109.57487085 138.38347266 115.94554719
704 1 84.7410157 154.24561336 140.02039958
705 1 86.92786923 155.60507286 138.77544313
722 1 103.06537584 142.39302693 119.8408424
724 1 105.10141585 141.07607288 117.59866939
725 1 107.28826939 142.43553238 116.35371293
726 1 107.13745587 139.75911883 115.35649637
727 1 109.3243094 141.11857833 114.11153991
728 1 86.67730778 158.34017853 136.94143585
729 1 86.52649426 155.66376498 135.94421929
745 1 102.81481439 145.1281326 118.00683513
746 1 105.00166792 146.4875921 116.76187868
747 1 104.8508544 143.81117855 115.76466211
748 1 107.03770794 145.17063805 114.51970566
749 1 109.07374795 143.853684 112.27753264
750 1 86.27593281 158.39887066 134.11021201
751 1 88.46278634 159.75833015 132.86525556
766 1 102.56425294 147.86323827 116.17282786
767 1 104.75110647 149.22269777 114.9278714
768 1 104.60029295 146.54628422 113.93065484
769 1 106.78714648 147.90574372 112.68569838
770 1 108.8231865 146.58878967 110.44352536
771 1 88.21222489 162.49343583 131.03124828
772 1 88.06141137 159.81702228 130.03403172
784 1 100.27765147 151.91529799 116.5809936
786 1 102.31369148 150.59834394 114.33882058
787 1 104.50054502 151.95780344 113.09386413
788 1 104.3497315 149.28138989 112.09664756
789 1 106.53658503 150.64084939 110.85169111
790 1 108.57262505 149.32389534 108.60951809
791 1 87.81084992 162.55212795 128.20002444
792 1 89.99770346 163.91158745 126.95506799
793 1 89.84688994 161.2351739 125.95785142
805 1 102.06313003 153.33344961 112.50481331
806 1 104.24998357 154.69290911 111.25985685
807 1 104.09917005 152.01649556 110.26264029
808 1 106.28602358 153.37595506 109.01768383
809 1 108.3220636 152.05900101 106.77551081
810 1 89.747142 166.64669312 125.12106071
811 1 89.59632849 163.97027957 124.12384415
823 1 101.81256858 156.06855528 110.67080603
825 1 103.8486086 154.75160124 108.42863301
826 1 106.03546213 156.11106073 107.18367656
827 1 108.07150214 154.79410669 104.94150354
828 1 89.34576704 166.70538525 122.28983687
829 1 91.53262057 168.06484474 121.04488042
842 1 103.59804714 157.48670691 106.59462574
843 1 105.78490068 158.84616641 105.34966928
844 1 107.82094069 157.52921236 103.10749626
845 1 91.28205912 170.79995042 119.21087315
846 1 91.1312456 168.12353687 118.21365658
854 1 99.27540566 162.85572068 109.2449645
860 1 107.57037924 160.26431803 101.27348899
861 1 90.88068415 170.85864254 116.3796493
862 1 93.06753768 172.21810204 115.13469285
863 1 92.91672416 169.54168849 114.13747628
869 1 99.02484421 165.59082635 107.41095723
871 1 101.06088423 164.2738723 105.16878421
872 1 103.24773776 165.6333318 103.92382775
874 1 105.28377777 164.31637775 101.68165473
875 1 107.31981779 162.9994237 99.43948171
876 1 92.81697623 174.95320771 113.30068558
877 1 92.66616271 172.27679416 112.30346901
883 1 98.77428276 168.32593202 105.57694995
885 1 100.81032277 167.00897797 103.33477693
886 1 102.99717631 168.36843747 102.08982048
887 1 102.84636279 165.69202392 101.09260391
888 1 105.03321632 167.05148342 99.84764746
889 1 94.60245479 176.37135933 109.22450528
890 1 94.45164128 173.69494579 108.22728872
891 1 96.63849481 175.05440529 106.98233226
893 1 98.67453482 173.73745124 104.74015924
894 1 98.52372131 171.06103769 103.74294268
895 1 100.71057484 172.42049719 102.49798622
896 1 100.55976132 169.74408364 101.50076966
897 1 102.74661486 171.10354314 100.2558132
898 1 102.59580134 168.42712959 99.25859664
899 1 104.78265487 169.78658909 98.01364018
900 1 94.20107982 176.43005146 106.39328144
901 1 96.23711984 175.11309741 104.15110842
902 1 121.52851827 100.17700415 134.64739009
903 1 123.56455829 98.8600501 132.40521707
904 1 117.20587679 105.54601792 137.29772885
905 1 119.24191681 104.22906387 135.05555583
906 1 119.09110329 101.55265033 134.05833927
907 1 121.27795682 102.91210982 132.81338281
908 1 123.31399684 101.59515578 130.5712098
909 1 112.88323531 110.91503169 139.94806762
910 1 114.91927532 109.59807764 137.7058946
911 1 114.76846181 106.92166409 136.70867803
913 1 116.80450182 105.60471005 134.46650501
914 1 118.99135536 106.96416954 133.22154856
915 1 118.84054184 104.287756 132.22433199
916 1 121.02739537 105.6472155 130.97937554
917 1 123.06343539 104.33026145 128.73720252
918 1 108.56059383 116.28404546 142.59840638
919 1 110.59663384 114.96709141 140.35623336
920 1 110.44582032 112.29067786 139.3590168
922 1 112.48186034 110.97372381 137.11684378
926 1 116.55394037 108.33981572 132.63249774
928 1 118.58998039 107.02286167 130.39032472
929 1 120.77683392 108.38232117 129.14536826
930 1 122.81287393 107.06536712 126.90319525
931 1 104.23795234 121.65305923 145.24874515
932 1 106.27399236 120.33610518 143.00657213
933 1 106.12317884 117.65969163 142.00935556
935 1 108.15921886 116.34273758 139.76718254
941 1 114.2673389 112.39187544 133.04066348
943 1 116.30337892 111.07492139 130.79849046
944 1 118.49023245 112.43438089 129.55353401
945 1 118.33941893 109.75796734 128.55631744
946 1 120.52627247 111.11742684 127.31136099
947 1 122.56231248 109.80047279 125.06918797
948 1 99.91531086 127.02207299 147.89908391
949 1 101.95135088 125.70511895 145.65691089
950 1 101.80053736 123.0287054 144.65969432
952 1 103.83657737 121.71175135 142.4175213
962 1 114.01677745 115.12698111 131.20665621
964 1 116.05281747 113.81002706 128.96448319
965 1 118.239671 115.16948656 127.71952673
966 1 118.08885748 112.49307301 126.72231017
967 1 120.27571102 113.85253251 125.47735372
968 1 122.31175103 112.53557846 123.2351807
969 1 95.59266938 132.39108676 150.54942267
970 1 97.62870939 131.07413271 148.30724965
971 1 97.47789588 128.39771917 147.31003309
973 1 99.51393589 127.08076512 145.06786007
987 1 113.766216 117.86208678 129.37264893
989 1 115.80225602 116.54513273 127.13047591
990 1 117.98910955 117.90459223 125.88551946
991 1 117.83829603 115.22817868 124.88830289
992 1 120.02514956 116.58763818 123.64334644
993 1 122.06118958 115.27068413 121.40117342
994 1 91.27002789 137.76010053 153.19976144
995 1 93.30606791 136.44314648 150.95758842
996 1 93.15525439 133.76673294 149.96037185
998 1 95.19129441 132.44977889 147.71819883
1016 1 113.51565455 120.59719245 127.53864166
1018 1 115.55169456 119.2802384 125.29646864
1019 1 117.7385481 120.6396979 124.05151219
1020 1 117.58773458 117.96328436 123.05429562
1021 1 119.77458811 119.32274385 121.80933917
1022 1 121.81062813 118.00578981 119.56716615
1023 1 86.94738641 143.1291143 155.8501002
1024 1 88.98342643 141.81216025 153.60792718
1025 1 88.83261291 139.1357467 152.61071062
1027 1 90.86865293 137.81879266 150.3685376
1051 1 115.30113311 122.01534408 123.46246136
1052 1 117.48798665 123.37480357 122.21750491
1053 1 117.33717313 120.69839003 121.22028834
1054 1 119.52402666 122.05784953 119.97533189
1055 1 121.56006668 120.74089548 117.73315887
1056 1 82.62474493 148.49812807 158.50043897
1057 1 84.66078494 147.18117402 156.25826595
1058 1 84.50997143 144.50476047 155.26104938
1060 1 86.54601144 143.18780642 153.01887636
1088 1 115.05057166 124.75044975 121.62845409
1089 1 117.23742519 126.10990925 120.38349764
1090 1 117.08661168 123.4334957 119.38628107
1091 1 119.27346521 124.7929552 118.14132462
1092 1 121.30950522 123.47600115 115.8991516
1093 1 82.22336996 148.55682019 155.66921513
1094 1 84.41022349 149.91627969 154.42425867
1127 1 116.83605022 126.16860137 117.55227379
1128 1 119.02290376 127.52806087 116.30731734
1129 1 84.15966204 152.65138536 152.5902514
1130 1 84.00884852 149.97497182 151.59303483
1158 1 112.51340874 131.53761514 120.20261256
1160 1 114.54944876 130.22066109 117.96043954
1161 1 116.73630229 131.58012059 116.71548309
1162 1 116.58548877 128.90370704 115.71826652
1163 1 118.77234231 130.26316654 114.47331007
1164 1 83.75828707 152.71007749 149.75902756
1165 1 85.9451406 154.06953699 148.5140711
1192 1 112.26284729 134.27272081 118.36860528
1194 1 114.29888731 132.95576676 116.12643226
1195 1 116.48574084 134.31522626 114.88147581
1196 1 118.52178085 132.99827221 112.63930279
1197 1 85.69457915 156.80464266 146.68006383
1198 1 85.54376564 154.12822911 145.68284726
1224 1 112.01228584 137.00782648 116.53459801
1225 1 114.19913937 138.36728598 115.28964156
1226 1 114.04832585 135.69087243 114.29242499
1227 1 116.23517939 137.05033193 113.04746854
1228 1 118.2712194 135.73337788 110.80529552
1229 1 85.29320418 156.86333478 143.84883999
1230 1 87.48005772 158.22279428 142.60388353
1231 1 87.3292442 155.54638073 141.60666697
1255 1 111.76172439 139.74293215 114.70059073
1256 1 113.94857792 141.10239165 113.45563428
1257 1 113.7977644 138.42597811 112.45841772
1258 1 115.98461794 139.7854376 111.21346126
1259 1 118.02065795 138.46848356 108.97128824
1260 1 87.22949626 160.95789995 140.76987626
1261 1 87.07868275 158.28148641 139.77265969
1262 1 89.26553628 159.6409459 138.52770324
1283 1 109.47512292 143.79499187 115.10875648
1285 1 111.51116294 142.47803783 112.86658346
1286 1 113.69801647 143.83749732 111.62162701
1287 1 113.54720295 141.16108378 110.62441044
1288 1 115.73405648 142.52054328 109.37945399
1289 1 117.7700965 141.20358923 107.13728097
1290 1 89.01497483 162.37605158 136.69369597
1291 1 88.86416131 159.69963803 135.6964794
1311 1 109.22456147 146.53009755 113.2747492
1313 1 111.26060148 145.2131435 111.03257619
1314 1 113.44745502 146.572603 109.78761973
1315 1 113.2966415 143.89618945 108.79040317
1316 1 115.48349503 145.25564895 107.54544671
1317 1 117.51953505 143.9386949 105.30327369
1318 1 88.61359986 162.4347437 133.86247212
1319 1 90.80045339 163.7942032 132.61751567
1338 1 108.97400002 149.26520322 111.44074193
1340 1 111.01004003 147.94824917 109.19856891
1341 1 113.19689356 149.30770867 107.95361246
1342 1 113.04608005 146.63129512 106.95639589
1343 1 115.23293358 147.99075462 105.71143944
1344 1 117.2689736 146.67380057 103.46926642
1345 1 90.54989194 166.52930887 130.7835084
1346 1 90.39907842 163.85289532 129.78629183
1364 1 108.72343856 152.00030889 109.60673466
1366 1 110.75947858 150.68335484 107.36456164
1367 1 112.94633211 152.04281434 106.11960518
1368 1 112.7955186 149.36640079 105.12238862
1369 1 114.98237213 150.72586029 103.87743216
1370 1 117.01841214 149.40890624 101.63525914
1371 1 90.14851697 166.588001 127.95228456
1372 1 92.33537051 167.94746049 126.7073281
1389 1 108.47287711 154.73541456 107.77272738
1391 1 110.50891713 153.41846051 105.53055436
1392 1 112.69577066 154.77792001 104.28559791
1393 1 112.54495714 152.10150646 103.28838134
1394 1 114.73181068 153.46096596 102.04342489
1395 1 116.76785069 152.14401191 99.80125187
1396 1 92.08480905 170.68256617 124.87332083
1397 1 91.93399554 168.00615262 123.87610426
1413 1 108.22231566 157.47052023 105.93872011
1415 1 110.25835568 156.15356618 103.69654709
1416 1 112.44520921 157.51302568 102.45159063
1417 1 112.29439569 154.83661214 101.45437407
1418 1 114.48124923 156.19607163 100.20941761
1419 1 91.68343408 170.74125829 122.04209699
1420 1 93.87028762 172.10071779 120.79714053
1437 1 110.00779423 158.88867186 101.86253981
1438 1 112.19464776 160.24813135 100.61758336
1439 1 112.04383424 157.57171781 99.62036679
1440 1 114.23068777 158.93117731 98.37541034
1441 1 93.61972617 174.83582346 118.96313326
1442 1 93.46891265 172.15940991 117.96591669
1458 1 109.75723277 161.62377753 100.02853254
1459 1 111.94408631 162.98323703 98.78357608
1460 1 113.98012632 161.66628298 96.54140306
1461 1 93.2183512 174.89451559 116.13190942
1462 1 95.40520473 176.25397508 114.88695296
1475 1 107.47063131 165.67583725 100.43669828
1476 1 109.65748484 167.03529675 99.19174183
1477 1 109.50667132 164.3588832 98.19452526
1478 1 111.69352485 165.7183427 96.94956881
1479 1 113.72956487 164.40138865 94.70739579
1480 1 95.15464328 178.98908076 113.05294569
1481 1 95.00382976 176.31266721 112.05572912
1482 1 97.19068329 177.67212671 110.81077267
1484 1 99.22672331 176.35517266 108.56859965
1486 1 101.26276333 175.03821861 106.32642663
1488 1 103.29880334 173.72126456 104.08425361
1490 1 105.33484336 172.40431051 101.84208059
1491 1 105.18402984 169.72789697 100.84486403
1492 1 107.37088337 171.08735647 99.59990757
1493 1 107.22006985 168.41094292 98.60269101
1494 1 109.40692339 169.77040242 97.35773455
1495 1 109.25610987 167.09398887 96.36051799
1496 1 111.4429634 168.45344837 95.11556153
1497 1 113.47900342 167.13649432 92.87338851